
Running Job 1 of 2 prod_optfreq0084.in
qchem prod_optfreq0084.in_61339.0 /tmp/qchem61339/ 1
/global/common/cori/software/qchem/5.1/exe/qcprog.exe prod_optfreq0084.in_61339.0 /tmp/qchem61339/
Check license passed

                  Welcome to Q-Chem
     A Quantum Leap Into The Future Of Chemistry


 Q-Chem 5.1, Q-Chem, Inc., Pleasanton, CA (2018)

 Yihan Shao,  Zhengting Gan,  E. Epifanovsky,  A. T. B. Gilbert,  M. Wormit,  
 J. Kussmann,  A. W. Lange,  A. Behn,  Jia Deng,  Xintian Feng,  D. Ghosh,  
 M. Goldey,  P. R. Horn,  L. D. Jacobson,  I. Kaliman,  T. Kus,  A. Landau,  
 Jie Liu,  E. I. Proynov,  R. M. Richard,  R. P. Steele,  E. J. Sundstrom,  
 H. L. Woodcock III,  P. M. Zimmerman,  D. Zuev,  B. Albrecht,  E. Alguire,  
 S. A. Baeppler,  D. Barton,  Z. Benda,  Y. A. Bernard,  E. J. Berquist,  
 K. B. Bravaya,  H. Burton,  D. Casanova,  Chun-Min Chang,  Yunqing Chen,  
 A. Chien,  K. D. Closser,  M. P. Coons,  S. Coriani,  S. Dasgupta,  
 A. L. Dempwolff,  M. Diedenhofen,  Hainam Do,  R. G. Edgar,  Po-Tung Fang,  
 S. Faraji,  S. Fatehi,  Qingguo Feng,  K. D. Fenk,  J. Fosso-Tande,  
 Qinghui Ge,  A. Ghysels,  G. Gidofalvi,  J. Gomes,  J. Gonthier,  A. Gunina,  
 D. Hait,  M. W. D. Hanson-Heine,  P. H. P. Harbach,  A. W. Hauser,  
 J. E. Herr,  E. G. Hohenstein,  Z. C. Holden,  Kerwin Hui,  B. C. Huynh,  
 T.-C. Jagau,  Hyunjun Ji,  B. Kaduk,  K. Khistyaev,  Jaehoon Kim,  
 P. Klunzinger,  K. Koh,  D. Kosenkov,  L. Koulias,  T. Kowalczyk,  
 C. M. Krauter,  A. Kunitsa,  Ka Un Lao,  A. Laurent,  K. V. Lawler,  
 Joonho Lee,  D. Lefrancois,  S. Lehtola,  D. S. Levine,  Yi-Pei Li,  
 You-Sheng Lin,  Fenglai Liu,  E. Livshits,  A. Luenser,  P. Manohar,  
 E. Mansoor,  S. F. Manzer,  Shan-Ping Mao,  Yuezhi Mao,  N. Mardirossian,  
 A. V. Marenich,  T. Markovich,  L. A. Martinez-Martinez,  S. A. Maurer,  
 N. J. Mayhall,  S. C. McKenzie,  J.-M. Mewes,  A. F. Morrison,  
 J. W. Mullinax,  K. Nanda,  T. S. Nguyen-Beck,  R. Olivares-Amaya,  
 J. A. Parkhill,  T. M. Perrine,  F. Plasser,  P. Pokhilko,  S. Prager,  
 A. Prociuk,  E. Ramos,  D. R. Rehn,  F. Rob,  M. Schneider,  N. Sergueev,  
 S. M. Sharada,  S. Sharma,  D. W. Small,  T. Stauch,  T. Stein,  
 Yu-Chuan Su,  A. J. W. Thom,  A. Tkatchenko,  T. Tsuchimochi,  N. M. Tubman,  
 L. Vogt,  M. L. Vidal,  O. Vydrov,  M. A. Watson,  J. Wenzel,  
 M. de Wergifosse,  T. A. Wesolowski,  A. White,  J. Witte,  A. Yamada,  
 Jun Yang,  K. Yao,  S. Yeganeh,  S. R. Yost,  Zhi-Qiang You,  A. Zech,  
 Igor Ying Zhang,  Xing Zhang,  Yan Zhao,  Ying Zhu,  B. R. Brooks,  
 G. K. L. Chan,  C. J. Cramer,  M. S. Gordon,  W. J. Hehre,  A. Klamt,  
 M. W. Schmidt,  C. D. Sherrill,  D. G. Truhlar,  A. Aspuru-Guzik,  R. Baer,  
 A. T. Bell,  N. A. Besley,  Jeng-Da Chai,  R. A. DiStasio Jr.,  A. Dreuw,  
 B. D. Dunietz,  T. R. Furlani,  Chao-Ping Hsu,  Yousung Jung,  Jing Kong,  
 D. S. Lambrecht,  WanZhen Liang,  C. Ochsenfeld,  V. A. Rassolov,  
 L. V. Slipchenko,  J. E. Subotnik,  T. Van Voorhis,  J. M. Herbert,  
 A. I. Krylov,  P. M. W. Gill,  M. Head-Gordon

 Contributors to earlier versions of Q-Chem not listed above: 
 R. D. Adamson,  B. Austin,  J. Baker,  G. J. O. Beran,  K. Brandhorst,  
 S. T. Brown,  E. F. C. Byrd,  A. K. Chakraborty,  C.-L. Cheng,  
 Siu Hung Chien,  D. M. Chipman,  D. L. Crittenden,  H. Dachsel,  
 R. J. Doerksen,  A. D. Dutoi,  L. Fusti-Molnar,  W. A. Goddard III,  
 A. Golubeva-Zadorozhnaya,  S. R. Gwaltney,  G. Hawkins,  A. Heyden,  
 S. Hirata,  G. Kedziora,  F. J. Keil,  C. Kelley,  Jihan Kim,  R. A. King,  
 R. Z. Khaliullin,  P. P. Korambath,  W. Kurlancheek,  A. M. Lee,  M. S. Lee,  
 S. V. Levchenko,  Ching Yeh Lin,  D. Liotard,  R. C. Lochan,  I. Lotan,  
 P. E. Maslen,  N. Nair,  D. P. O'Neill,  D. Neuhauser,  E. Neuscamman,  
 C. M. Oana,  R. Olson,  B. Peters,  R. Peverati,  P. A. Pieniazek,  
 Y. M. Rhee,  J. Ritchie,  M. A. Rohrdanz,  E. Rosta,  N. J. Russ,  
 H. F. Schaefer III,  N. E. Schultz,  N. Shenvi,  A. C. Simmonett,  A. Sodt,  
 D. Stuck,  K. S. Thanthiriwatte,  V. Vanovschi,  Tao Wang,  A. Warshel,  
 C. F. Williams,  Q. Wu,  X. Xu,  W. Zhang

 Please cite Q-Chem as follows:
 Y. Shao et al., Mol. Phys. 113, 184-215 (2015)
 DOI: 10.1080/00268976.2014.952696

 Q-Chem 5.1.0 for Intel X86 EM64T Linux

 Parts of Q-Chem use Armadillo 8.300.2 (Tropical Shenanigans).
 http://arma.sourceforge.net/

 Q-Chem begins on Tue Feb 12 23:20:09 2019  

Host: cori07
0

     Scratch files written to /tmp/qchem61339//
 Jun2518 |scratch|qcdevops|jenkins|workspace|build_RNUM -1
Processing $rem in /global/common/cori/software/qchem/5.1/config/preferences.
 MEM_TOTAL  96000 

Checking the input file for inconsistencies... 	...done.

--------------------------------------------------------------
User input:
--------------------------------------------------------------
$molecule
0 1
C  -1.6345982540  -0.2178484619   0.3043330711
C   0.6564446384  -0.2997591738  -0.6233773192
N  -0.3018668076  -0.6923084293   0.0135179635
O   2.5837668208   0.8215704074   0.7947203639
N   2.8374216197   0.6882511546  -0.3511951675
N   1.7091264608  -0.0169021372  -1.2412115106
H  -1.8293155638  -0.3404642187   1.3775159421
H  -1.7691956389   0.8375718620   0.0298967481
H  -2.3654062755  -0.8281680031  -0.2441870914
$end

$rem
JOBTYPE                   OPT
METHOD                    wB97X-D3
BASIS                     def2-TZVP
UNRESTRICTED              TRUE
SCF_ALGORITHM             DIIS
MAX_SCF_CYCLES            100
SCF_CONVERGENCE           8
SYM_IGNORE                TRUE
SYMMETRY                  FALSE
GEOM_OPT_MAX_CYCLES       100
GEOM_OPT_TOL_GRADIENT     100
GEOM_OPT_TOL_DISPLACEMENT 400
GEOM_OPT_TOL_ENERGY       33
WAVEFUNCTION_ANALYSIS     FALSE
$end

--------------------------------------------------------------
 Adding empirical dispersion correction 
 ----------------------------------------------------------------
 Doing -D3(0) with
 s6  =   1.00000
 s8  =   1.00000
 rs6 =   1.28100
 rs8 =   1.09400
 -D3 energy without 3body term =     -0.0013021020 hartrees
 ----------------------------------------------------------------
             Standard Nuclear Orientation (Angstroms)
    I     Atom           X                Y                Z
 ----------------------------------------------------------------
    1      C      -1.6345982540    -0.2178484619     0.3043330711
    2      C       0.6564446384    -0.2997591738    -0.6233773192
    3      N      -0.3018668076    -0.6923084293     0.0135179635
    4      O       2.5837668208     0.8215704074     0.7947203639
    5      N       2.8374216197     0.6882511546    -0.3511951675
    6      N       1.7091264608    -0.0169021372    -1.2412115106
    7      H      -1.8293155638    -0.3404642187     1.3775159421
    8      H      -1.7691956389     0.8375718620     0.0298967481
    9      H      -2.3654062755    -0.8281680031    -0.2441870914
 ----------------------------------------------------------------
 Nuclear Repulsion Energy =   200.8880067336 hartrees
 There are       22 alpha and       22 beta electrons
 Requested basis set is def2-TZVP
 There are 78 shells and 204 basis functions

 Total QAlloc Memory Limit  96000 MB
 Mega-Array Size       188 MB
 MEM_STATIC part       192 MB
 A cutoff of  1.0D-11 yielded   2735 shell pairs
 There are     19071 function pairs (     25128 Cartesian)
 
 -------------------------------------------------------
 OpenMP Integral Computing Module                       
 Release: version 1.0, May 2013, Q-Chem Inc. Pittsburgh 
 -------------------------------------------------------
 Integral Job Info:
 Integral job number is                      11
 Integral operator is                         1
 short-range coefficients              19572800
 long-range coefficients              100000000
 Omega coefficients                         250
 if combine SR and LR in K                    1
 Integral screening is                        0
 Integral computing path is                   2
 max size of driver memory is            800000
 size of driver memory is                776718
 size of scratch memory is              4473992
 max col of scratch BK array              10000
 max len of scratch array in speh3          662
 max len of scratch index in speh4           32
 max int batch size is                      520
 min int batch size is                       52
 fixed nKL is                                52
 max L of basis functions is                  3
 order of int derivative is                   0
 number of shells is                         78
 number of basis is                         234
 number of cartesian basis is               234
 number of contracted shell pairs          2735
 number of primitive shell pairs           6571
 maxK2 (contraction) of shell pair           36
 max number of K2 of shell pair               1
 max number of CS2 of shell pair            363
 max number of PS2 of shell pair            822
 mem total for path MDJ                  578244
 -------------------------------------------------------
 Smallest overlap matrix eigenvalue = 1.25E-04

 Scale SEOQF with 1.000000e-01/1.000000e+00/1.000000e-01

 Standard Electronic Orientation quadrupole field applied
 Nucleus-field energy     =     0.0000000137 hartrees
 Guess from superposition of atomic densities
 Warning:  Energy on first SCF cycle will be non-variational
 SAD guess density has 44.000000 electrons

 -----------------------------------------------------------------------
  General SCF calculation program by
  Eric Jon Sundstrom, Paul Horn, Yuezhi Mao, Dmitri Zuev, Alec White,
  David Stuck, Shaama M.S., Shane Yost, Joonho Lee, David Small,
  Daniel Levine, Susi Lehtola, Hugh Burton, Evgeny Epifanovsky
 -----------------------------------------------------------------------
 Exchange:     0.1957 Hartree-Fock + 1.0000 wB97X-D3 + LR-HF
 Correlation:  1.0000 wB97X-D3
 Using SG-2 standard quadrature grid
 Dispersion:   Grimme D3
 using 16 threads for integral computing
 -------------------------------------------------------
 OpenMP Integral computing Module                
 Release: version 1.0, May 2013, Q-Chem Inc. Pittsburgh 
 -------------------------------------------------------
 using 16 threads for integral computing
 -------------------------------------------------------
 OpenMP Integral computing Module                
 Release: version 1.0, May 2013, Q-Chem Inc. Pittsburgh 
 -------------------------------------------------------
 -------------------------------------------------------
 OpenMP BLAS3 based DFT computing Module                
 Release: version 1.0, May 2013, Q-Chem Inc. Pittsburgh 
 -------------------------------------------------------
 A unrestricted SCF calculation will be
 performed using DIIS
 SCF converges when DIIS error is below 1.0e-08
 ---------------------------------------
  Cycle       Energy         DIIS error
 ---------------------------------------
    1    -318.4142652862      1.89e-02  
    2    -317.2670002559      2.54e-03  
    3    -317.1926088026      3.57e-03  
    4    -317.3744346286      4.19e-04  
    5    -317.3760413928      3.00e-04  
    6    -317.3775234721      4.87e-05  
    7    -317.3776341298      2.61e-05  
    8    -317.3776665653      1.27e-05  
    9    -317.3776845442      6.43e-06  
   10    -317.3776880115      2.77e-06  
   11    -317.3776885115      6.72e-07  
   12    -317.3776885375      2.13e-07  
   13    -317.3776885410      7.69e-08  
   14    -317.3776885414      2.66e-08  
   15    -317.3776885414      1.05e-08  
   16    -317.3776885414      5.49e-09  Convergence criterion met
 ---------------------------------------
 SCF time:   CPU 465.06s  wall 33.00s 
<S^2> =          0.000000000
 SCF   energy in the final basis set =     -317.3776885414
 Total energy in the final basis set =     -317.3776885414
 No wavefunction analysis requested
 Calculating analytic gradient of the SCF energy
 Gradient of SCF Energy
            1           2           3           4           5           6
    1   0.0017482   0.0090958  -0.0256056  -0.0061355   0.0287015  -0.0006060
    2  -0.0024340   0.0043590  -0.0104616   0.0069901   0.0065917  -0.0069855
    3   0.0002448  -0.0150382   0.0190818   0.0460333  -0.0291830  -0.0228812
            7           8           9
    1  -0.0017712  -0.0008319  -0.0045953
    2  -0.0003363   0.0048872  -0.0026105
    3   0.0054883  -0.0012883  -0.0024574
 Max gradient component =       4.603E-02
 RMS gradient           =       1.498E-02
 Gradient time:  CPU 80.16 s  wall 6.73 s
 Geometry Optimization Parameters
   NAtoms,    NIC,     NZ,  NCons,   NDum,   NFix, NCnnct, MaxDiis
        9      42       0       0       0       0       0       0


** GEOMETRY OPTIMIZATION IN DELOCALIZED INTERNAL COORDINATES **
   Searching for a Minimum

   Optimization Cycle:   1

                       Coordinates (Angstroms)
     ATOM                X               Y               Z
      1  C        -1.6345982540   -0.2178484619    0.3043330711
      2  C         0.6564446384   -0.2997591738   -0.6233773192
      3  N        -0.3018668076   -0.6923084293    0.0135179635
      4  O         2.5837668208    0.8215704074    0.7947203639
      5  N         2.8374216197    0.6882511546   -0.3511951675
      6  N         1.7091264608   -0.0169021372   -1.2412115106
      7  H        -1.8293155638   -0.3404642187    1.3775159421
      8  H        -1.7691956389    0.8375718620    0.0298967481
      9  H        -2.3654062755   -0.8281680031   -0.2441870914
   Point Group: c1    Number of degrees of freedom:    21


   Energy is   -317.377688541


 Attempting to Generate Delocalized Internal Coordinates

 21 Hessian modes will be used to form the next step
  Hessian Eigenvalues:
     0.002000    0.003395    0.009792    0.098780    0.102944    0.160000
     0.160000    0.160000    0.200000    0.200000    0.237493    0.250000
     0.250000    0.250000    0.338110    0.338161    0.339517    0.390082
     0.821586    0.972832    1.148660

 Minimum Search - Taking Simple RFO Step
 Searching for Lamda that Minimizes Along All modes
 Value Taken    Lamda =  -0.00945248
 Step Taken.  Stepsize is  0.167563

                             Maximum     Tolerance    Cnvgd?
         Gradient           0.029930      0.000100      NO
         Displacement       0.084532      0.000400      NO
         Energy change     *********      0.000000      NO


 New Cartesian Coordinates Obtained by Inverse Iteration

 Displacement from previous Coordinates is:  0.489566
 Adding empirical dispersion correction 
 ----------------------------------------------------------------
 Doing -D3(0) with
 s6  =   1.00000
 s8  =   1.00000
 rs6 =   1.28100
 rs8 =   1.09400
 -D3 energy without 3body term =     -0.0013237540 hartrees
 ----------------------------------------------------------------
             Standard Nuclear Orientation (Angstroms)
    I     Atom           X                Y                Z
 ----------------------------------------------------------------
    1      C      -1.5811140501    -0.2033186497     0.3061698112
    2      C       0.6726804193    -0.3123871665    -0.6151198286
    3      N      -0.2667625345    -0.7041508253     0.0104452516
    4      O       2.3937174338     0.8018165753     0.7613553667
    5      N       2.7389526819     0.6711796252    -0.3381705326
    6      N       1.7061594724    -0.0244810303    -1.2336240845
    7      H      -1.7729931207    -0.3394790736     1.3693444114
    8      H      -1.6903372737     0.8513434696     0.0491327695
    9      H      -2.3139260286    -0.7885799246    -0.2495201647
 ----------------------------------------------------------------
 Nuclear Repulsion Energy =   206.4758455226 hartrees
 There are       22 alpha and       22 beta electrons
 Applying Cartesian multipole field
    Component          Value
    ---------          -----
     (2,0,0)        1.00000E-11
     (0,2,0)        2.00000E-10
     (0,0,2)       -3.00000E-11
 Nucleus-field energy     =     0.0000000131 hartrees
 Requested basis set is def2-TZVP
 There are 78 shells and 204 basis functions
 A cutoff of  1.0D-11 yielded   2761 shell pairs
 There are     19369 function pairs (     25578 Cartesian)
 Smallest overlap matrix eigenvalue = 1.08E-04
 Guess MOs from SCF MO coefficient file
 Reading MOs from coefficient file
 Reading MOs from coefficient file

 -----------------------------------------------------------------------
  General SCF calculation program by
  Eric Jon Sundstrom, Paul Horn, Yuezhi Mao, Dmitri Zuev, Alec White,
  David Stuck, Shaama M.S., Shane Yost, Joonho Lee, David Small,
  Daniel Levine, Susi Lehtola, Hugh Burton, Evgeny Epifanovsky
 -----------------------------------------------------------------------
 Exchange:     0.1957 Hartree-Fock + 1.0000 wB97X-D3 + LR-HF
 Correlation:  1.0000 wB97X-D3
 Using SG-2 standard quadrature grid
 Dispersion:   Grimme D3
 using 16 threads for integral computing
 -------------------------------------------------------
 OpenMP Integral computing Module                
 Release: version 1.0, May 2013, Q-Chem Inc. Pittsburgh 
 -------------------------------------------------------
 using 16 threads for integral computing
 -------------------------------------------------------
 OpenMP Integral computing Module                
 Release: version 1.0, May 2013, Q-Chem Inc. Pittsburgh 
 -------------------------------------------------------
 -------------------------------------------------------
 OpenMP BLAS3 based DFT computing Module                
 Release: version 1.0, May 2013, Q-Chem Inc. Pittsburgh 
 -------------------------------------------------------
 A unrestricted SCF calculation will be
 performed using DIIS
 SCF converges when DIIS error is below 1.0e-08
 ---------------------------------------
  Cycle       Energy         DIIS error
 ---------------------------------------
    1    -317.4838157510      1.46e-03  
    2    -317.3813314050      2.22e-04  
    3    -317.3818880425      2.09e-04  
    4    -317.3825458442      6.22e-05  
    5    -317.3826096647      2.62e-05  
    6    -317.3826265349      1.22e-05  
    7    -317.3826307610      4.56e-06  
    8    -317.3826314729      2.18e-06  
    9    -317.3826316911      5.72e-07  
   10    -317.3826317163      2.65e-07  
   11    -317.3826317206      1.36e-07  
   12    -317.3826317221      3.86e-08  
   13    -317.3826317223      1.22e-08  
   14    -317.3826317223      5.32e-09  Convergence criterion met
 ---------------------------------------
 SCF time:   CPU 437.69s  wall 31.00s 
<S^2> =         -0.000000000
 SCF   energy in the final basis set =     -317.3826317223
 Total energy in the final basis set =     -317.3826317223
 No wavefunction analysis requested
 Calculating analytic gradient of the SCF energy
 Gradient of SCF Energy
            1           2           3           4           5           6
    1   0.0018207   0.0079423  -0.0042297  -0.0034708   0.0122151  -0.0143571
    2  -0.0001431   0.0062523  -0.0022905  -0.0047553   0.0099321  -0.0090657
    3  -0.0010712  -0.0030350   0.0040857  -0.0111369   0.0153886  -0.0041945
            7           8           9
    1   0.0003824  -0.0003725   0.0000696
    2  -0.0001515   0.0002964  -0.0000747
    3   0.0001195   0.0000247  -0.0001809
 Max gradient component =       1.539E-02
 RMS gradient           =       6.399E-03
 Gradient time:  CPU 84.24 s  wall 5.89 s
 Geometry Optimization Parameters
   NAtoms,    NIC,     NZ,  NCons,   NDum,   NFix, NCnnct, MaxDiis
        9      42       0       0       0       0       0       0

 Cartesian Hessian Update
 Hessian Updated using BFGS Update


** GEOMETRY OPTIMIZATION IN DELOCALIZED INTERNAL COORDINATES **
   Searching for a Minimum

   Optimization Cycle:   2

                       Coordinates (Angstroms)
     ATOM                X               Y               Z
      1  C        -1.5811140501   -0.2033186497    0.3061698112
      2  C         0.6726804193   -0.3123871665   -0.6151198286
      3  N        -0.2667625345   -0.7041508253    0.0104452516
      4  O         2.3937174338    0.8018165753    0.7613553667
      5  N         2.7389526819    0.6711796252   -0.3381705326
      6  N         1.7061594724   -0.0244810303   -1.2336240845
      7  H        -1.7729931207   -0.3394790736    1.3693444114
      8  H        -1.6903372737    0.8513434696    0.0491327695
      9  H        -2.3139260286   -0.7885799246   -0.2495201647
   Point Group: c1    Number of degrees of freedom:    21


   Energy is   -317.382631722

 Hessian Updated using BFGS Update

 20 Hessian modes will be used to form the next step
  Hessian Eigenvalues:
     0.001996    0.003399    0.009792    0.098778    0.102960    0.159240
     0.160211    0.167571    0.200027    0.200727    0.249646    0.250000
     0.316457    0.338134    0.338952    0.347042    0.395174    0.846419
     0.946595    1.284490

 Minimum Search - Taking Simple RFO Step
 Searching for Lamda that Minimizes Along All modes
 Value Taken    Lamda =  -0.00215746
 Step Taken.  Stepsize is  0.184731

                             Maximum     Tolerance    Cnvgd?
         Gradient           0.011437      0.000100      NO
         Displacement       0.083413      0.000400      NO
         Energy change     -0.004943      0.000000      NO


 New Cartesian Coordinates Obtained by Inverse Iteration

 Displacement from previous Coordinates is:  0.323212
 Adding empirical dispersion correction 
 ----------------------------------------------------------------
 Doing -D3(0) with
 s6  =   1.00000
 s8  =   1.00000
 rs6 =   1.28100
 rs8 =   1.09400
 -D3 energy without 3body term =     -0.0013273880 hartrees
 ----------------------------------------------------------------
             Standard Nuclear Orientation (Angstroms)
    I     Atom           X                Y                Z
 ----------------------------------------------------------------
    1      C      -1.5818494490    -0.2068900803     0.3064350620
    2      C       0.6683111983    -0.3380928003    -0.6062086931
    3      N      -0.2810950989    -0.7325070614    -0.0111617999
    4      O       2.4044853387     0.9147796151     0.7351709166
    5      N       2.7322089905     0.6230466453    -0.3383322659
    6      N       1.7107893472    -0.0412543028    -1.2058344081
    7      H      -1.7845639255    -0.3871983658     1.3589206995
    8      H      -1.6537303929     0.8598096176     0.1001911226
    9      H      -2.3281790084    -0.7397502672    -0.2791676336
 ----------------------------------------------------------------
 Nuclear Repulsion Energy =   206.5802891796 hartrees
 There are       22 alpha and       22 beta electrons
 Applying Cartesian multipole field
    Component          Value
    ---------          -----
     (2,0,0)        1.00000E-11
     (0,2,0)        2.00000E-10
     (0,0,2)       -3.00000E-11
 Nucleus-field energy     =     0.0000000143 hartrees
 Requested basis set is def2-TZVP
 There are 78 shells and 204 basis functions
 A cutoff of  1.0D-11 yielded   2763 shell pairs
 There are     19353 function pairs (     25542 Cartesian)
 Smallest overlap matrix eigenvalue = 1.04E-04
 Guess MOs from SCF MO coefficient file
 Reading MOs from coefficient file
 Reading MOs from coefficient file

 -----------------------------------------------------------------------
  General SCF calculation program by
  Eric Jon Sundstrom, Paul Horn, Yuezhi Mao, Dmitri Zuev, Alec White,
  David Stuck, Shaama M.S., Shane Yost, Joonho Lee, David Small,
  Daniel Levine, Susi Lehtola, Hugh Burton, Evgeny Epifanovsky
 -----------------------------------------------------------------------
 Exchange:     0.1957 Hartree-Fock + 1.0000 wB97X-D3 + LR-HF
 Correlation:  1.0000 wB97X-D3
 Using SG-2 standard quadrature grid
 Dispersion:   Grimme D3
 using 16 threads for integral computing
 -------------------------------------------------------
 OpenMP Integral computing Module                
 Release: version 1.0, May 2013, Q-Chem Inc. Pittsburgh 
 -------------------------------------------------------
 using 16 threads for integral computing
 -------------------------------------------------------
 OpenMP Integral computing Module                
 Release: version 1.0, May 2013, Q-Chem Inc. Pittsburgh 
 -------------------------------------------------------
 -------------------------------------------------------
 OpenMP BLAS3 based DFT computing Module                
 Release: version 1.0, May 2013, Q-Chem Inc. Pittsburgh 
 -------------------------------------------------------
 A unrestricted SCF calculation will be
 performed using DIIS
 SCF converges when DIIS error is below 1.0e-08
 ---------------------------------------
  Cycle       Energy         DIIS error
 ---------------------------------------
    1    -317.3731928724      1.62e-03  
    2    -317.3804042630      3.16e-04  
    3    -317.3816234645      3.38e-04  
    4    -317.3834022196      8.37e-05  
    5    -317.3835732665      4.88e-05  
    6    -317.3836610811      1.86e-05  
    7    -317.3836882856      8.27e-06  
    8    -317.3836961006      5.25e-06  
    9    -317.3836990654      2.21e-06  
   10    -317.3836996422      1.24e-06  
   11    -317.3836998222      6.20e-07  
   12    -317.3836998531      1.64e-07  
   13    -317.3836998558      6.23e-08  
   14    -317.3836998562      1.88e-08  
   15    -317.3836998562      5.32e-09  Convergence criterion met
 ---------------------------------------
 SCF time:   CPU 464.08s  wall 32.00s 
<S^2> =         -0.000000000
 SCF   energy in the final basis set =     -317.3836998562
 Total energy in the final basis set =     -317.3836998562
 No wavefunction analysis requested
 Calculating analytic gradient of the SCF energy
 Gradient of SCF Energy
            1           2           3           4           5           6
    1   0.0010352   0.0040565   0.0034783   0.0103770  -0.0090030  -0.0108636
    2   0.0008826   0.0021224   0.0004206  -0.0022321   0.0061232  -0.0071003
    3  -0.0005702  -0.0022924  -0.0010203  -0.0148256   0.0241980  -0.0051463
            7           8           9
    1   0.0002457  -0.0002890   0.0009628
    2   0.0001310  -0.0009337   0.0005864
    3  -0.0011161   0.0002873   0.0004856
 Max gradient component =       2.420E-02
 RMS gradient           =       6.877E-03
 Gradient time:  CPU 83.91 s  wall 5.89 s
 Geometry Optimization Parameters
   NAtoms,    NIC,     NZ,  NCons,   NDum,   NFix, NCnnct, MaxDiis
        9      42       0       0       0       0       0       0

 Cartesian Hessian Update
 Hessian Updated using BFGS Update


** GEOMETRY OPTIMIZATION IN DELOCALIZED INTERNAL COORDINATES **
   Searching for a Minimum

   Optimization Cycle:   3

                       Coordinates (Angstroms)
     ATOM                X               Y               Z
      1  C        -1.5818494490   -0.2068900803    0.3064350620
      2  C         0.6683111983   -0.3380928003   -0.6062086931
      3  N        -0.2810950989   -0.7325070614   -0.0111617999
      4  O         2.4044853387    0.9147796151    0.7351709166
      5  N         2.7322089905    0.6230466453   -0.3383322659
      6  N         1.7107893472   -0.0412543028   -1.2058344081
      7  H        -1.7845639255   -0.3871983658    1.3589206995
      8  H        -1.6537303929    0.8598096176    0.1001911226
      9  H        -2.3281790084   -0.7397502672   -0.2791676336
   Point Group: c1    Number of degrees of freedom:    21


   Energy is   -317.383699856

 Hessian Updated using BFGS Update

 21 Hessian modes will be used to form the next step
  Hessian Eigenvalues:
     0.001978    0.003443    0.009767    0.096659    0.098801    0.103348
     0.160020    0.160087    0.160446    0.200100    0.200519    0.249961
     0.258949    0.338133    0.338681    0.340440    0.390883    0.580362
     0.840063    0.973643    1.260640

 Minimum Search - Taking Simple RFO Step
 Searching for Lamda that Minimizes Along All modes
 Value Taken    Lamda =  -0.00142510
 Step Taken.  Stepsize is  0.167141

                             Maximum     Tolerance    Cnvgd?
         Gradient           0.015422      0.000100      NO
         Displacement       0.090942      0.000400      NO
         Energy change     -0.001068      0.000000      NO


 New Cartesian Coordinates Obtained by Inverse Iteration

 Displacement from previous Coordinates is:  0.197024
 Adding empirical dispersion correction 
 ----------------------------------------------------------------
 Doing -D3(0) with
 s6  =   1.00000
 s8  =   1.00000
 rs6 =   1.28100
 rs8 =   1.09400
 -D3 energy without 3body term =     -0.0013090787 hartrees
 ----------------------------------------------------------------
             Standard Nuclear Orientation (Angstroms)
    I     Atom           X                Y                Z
 ----------------------------------------------------------------
    1      C      -1.5950786963    -0.2126777944     0.3068037065
    2      C       0.6701207032    -0.3295321423    -0.5892061244
    3      N      -0.2894464315    -0.7302827645    -0.0176650830
    4      O       2.4228097084     0.9624042717     0.7012510105
    5      N       2.7592471886     0.5714113377    -0.3459962670
    6      N       1.7239353599    -0.0225575454    -1.1782867215
    7      H      -1.8030698896    -0.4110473693     1.3555148342
    8      H      -1.6615741046     0.8578856011     0.1190832328
    9      H      -2.3405668382    -0.7336605946    -0.2914855880
 ----------------------------------------------------------------
 Nuclear Repulsion Energy =   206.6349369256 hartrees
 There are       22 alpha and       22 beta electrons
 Applying Cartesian multipole field
    Component          Value
    ---------          -----
     (2,0,0)        1.00000E-11
     (0,2,0)        2.00000E-10
     (0,0,2)       -3.00000E-11
 Nucleus-field energy     =     0.0000000146 hartrees
 Requested basis set is def2-TZVP
 There are 78 shells and 204 basis functions
 A cutoff of  1.0D-11 yielded   2758 shell pairs
 There are     19282 function pairs (     25436 Cartesian)
 Smallest overlap matrix eigenvalue = 1.04E-04
 Guess MOs from SCF MO coefficient file
 Reading MOs from coefficient file
 Reading MOs from coefficient file

 -----------------------------------------------------------------------
  General SCF calculation program by
  Eric Jon Sundstrom, Paul Horn, Yuezhi Mao, Dmitri Zuev, Alec White,
  David Stuck, Shaama M.S., Shane Yost, Joonho Lee, David Small,
  Daniel Levine, Susi Lehtola, Hugh Burton, Evgeny Epifanovsky
 -----------------------------------------------------------------------
 Exchange:     0.1957 Hartree-Fock + 1.0000 wB97X-D3 + LR-HF
 Correlation:  1.0000 wB97X-D3
 Using SG-2 standard quadrature grid
 Dispersion:   Grimme D3
 using 16 threads for integral computing
 -------------------------------------------------------
 OpenMP Integral computing Module                
 Release: version 1.0, May 2013, Q-Chem Inc. Pittsburgh 
 -------------------------------------------------------
 using 16 threads for integral computing
 -------------------------------------------------------
 OpenMP Integral computing Module                
 Release: version 1.0, May 2013, Q-Chem Inc. Pittsburgh 
 -------------------------------------------------------
 -------------------------------------------------------
 OpenMP BLAS3 based DFT computing Module                
 Release: version 1.0, May 2013, Q-Chem Inc. Pittsburgh 
 -------------------------------------------------------
 A unrestricted SCF calculation will be
 performed using DIIS
 SCF converges when DIIS error is below 1.0e-08
 ---------------------------------------
  Cycle       Energy         DIIS error
 ---------------------------------------
    1    -317.3746614601      1.09e-03  
    2    -317.3826786152      2.42e-04  
    3    -317.3832140093      2.91e-04  
    4    -317.3844558152      6.22e-05  
    5    -317.3845963046      3.30e-05  
    6    -317.3846639484      1.82e-05  
    7    -317.3846902202      8.46e-06  
    8    -317.3846976566      5.38e-06  
    9    -317.3847007797      2.08e-06  
   10    -317.3847013072      9.43e-07  
   11    -317.3847014291      4.59e-07  
   12    -317.3847014432      1.26e-07  
   13    -317.3847014445      4.97e-08  
   14    -317.3847014447      1.57e-08  
   15    -317.3847014448      4.52e-09  Convergence criterion met
 ---------------------------------------
 SCF time:   CPU 466.18s  wall 32.00s 
<S^2> =         -0.000000000
 SCF   energy in the final basis set =     -317.3847014448
 Total energy in the final basis set =     -317.3847014448
 No wavefunction analysis requested
 Calculating analytic gradient of the SCF energy
 Gradient of SCF Energy
            1           2           3           4           5           6
    1  -0.0003354  -0.0006500   0.0035831   0.0074263  -0.0072045  -0.0026167
    2   0.0009005  -0.0028326   0.0006759  -0.0042150   0.0051229   0.0003201
    3  -0.0004754  -0.0021112   0.0010775  -0.0137824   0.0174730  -0.0020039
            7           8           9
    1  -0.0002883  -0.0000911   0.0001765
    2   0.0002386  -0.0007417   0.0005313
    3  -0.0007416   0.0001308   0.0004332
 Max gradient component =       1.747E-02
 RMS gradient           =       5.046E-03
 Gradient time:  CPU 83.64 s  wall 5.83 s
 Geometry Optimization Parameters
   NAtoms,    NIC,     NZ,  NCons,   NDum,   NFix, NCnnct, MaxDiis
        9      42       0       0       0       0       0       0

 Cartesian Hessian Update
 Hessian Updated using BFGS Update


** GEOMETRY OPTIMIZATION IN DELOCALIZED INTERNAL COORDINATES **
   Searching for a Minimum

   Optimization Cycle:   4

                       Coordinates (Angstroms)
     ATOM                X               Y               Z
      1  C        -1.5950786963   -0.2126777944    0.3068037065
      2  C         0.6701207032   -0.3295321423   -0.5892061244
      3  N        -0.2894464315   -0.7302827645   -0.0176650830
      4  O         2.4228097084    0.9624042717    0.7012510105
      5  N         2.7592471886    0.5714113377   -0.3459962670
      6  N         1.7239353599   -0.0225575454   -1.1782867215
      7  H        -1.8030698896   -0.4110473693    1.3555148342
      8  H        -1.6615741046    0.8578856011    0.1190832328
      9  H        -2.3405668382   -0.7336605946   -0.2914855880
   Point Group: c1    Number of degrees of freedom:    21


   Energy is   -317.384701445

 Hessian Updated using BFGS Update

 21 Hessian modes will be used to form the next step
  Hessian Eigenvalues:
     0.002313    0.003802    0.009719    0.066779    0.098807    0.103036
     0.160008    0.160293    0.161228    0.200435    0.208638    0.246077
     0.258754    0.337836    0.338243    0.339417    0.395026    0.500788
     0.819566    0.961786    1.074661

 Minimum Search - Taking Simple RFO Step
 Searching for Lamda that Minimizes Along All modes
 Value Taken    Lamda =  -0.00164214
 Calculated Step too Large.  Step scaled by  0.820858
 Step Taken.  Stepsize is  0.300000

                             Maximum     Tolerance    Cnvgd?
         Gradient           0.011241      0.000100      NO
         Displacement       0.127028      0.000400      NO
         Energy change     -0.001002      0.000000      NO


 New Cartesian Coordinates Obtained by Inverse Iteration

 Displacement from previous Coordinates is:  0.454041
 Adding empirical dispersion correction 
 ----------------------------------------------------------------
 Doing -D3(0) with
 s6  =   1.00000
 s8  =   1.00000
 rs6 =   1.28100
 rs8 =   1.09400
 -D3 energy without 3body term =     -0.0013152328 hartrees
 ----------------------------------------------------------------
             Standard Nuclear Orientation (Angstroms)
    I     Atom           X                Y                Z
 ----------------------------------------------------------------
    1      C      -1.5914089181    -0.2068419002     0.3104937600
    2      C       0.6885805975    -0.3776923670    -0.5726534557
    3      N      -0.3069461306    -0.7560626572    -0.0508189893
    4      O       2.3514869557     1.0334410605     0.6581115532
    5      N       2.7348773146     0.6130507190    -0.3787584975
    6      N       1.7807482888    -0.1084011174    -1.1245737288
    7      H      -1.8109709716    -0.4744186272     1.3426997066
    8      H      -1.6037235206     0.8777844361     0.2031453295
    9      H      -2.3562666157    -0.6489165464    -0.3276326781
 ----------------------------------------------------------------
 Nuclear Repulsion Energy =   207.1074036779 hartrees
 There are       22 alpha and       22 beta electrons
 Applying Cartesian multipole field
    Component          Value
    ---------          -----
     (2,0,0)        1.00000E-11
     (0,2,0)        2.00000E-10
     (0,0,2)       -3.00000E-11
 Nucleus-field energy     =     0.0000000161 hartrees
 Requested basis set is def2-TZVP
 There are 78 shells and 204 basis functions
 A cutoff of  1.0D-11 yielded   2761 shell pairs
 There are     19295 function pairs (     25453 Cartesian)
 Smallest overlap matrix eigenvalue = 1.07E-04
 Guess MOs from SCF MO coefficient file
 Reading MOs from coefficient file
 Reading MOs from coefficient file

 -----------------------------------------------------------------------
  General SCF calculation program by
  Eric Jon Sundstrom, Paul Horn, Yuezhi Mao, Dmitri Zuev, Alec White,
  David Stuck, Shaama M.S., Shane Yost, Joonho Lee, David Small,
  Daniel Levine, Susi Lehtola, Hugh Burton, Evgeny Epifanovsky
 -----------------------------------------------------------------------
 Exchange:     0.1957 Hartree-Fock + 1.0000 wB97X-D3 + LR-HF
 Correlation:  1.0000 wB97X-D3
 Using SG-2 standard quadrature grid
 Dispersion:   Grimme D3
 using 16 threads for integral computing
 -------------------------------------------------------
 OpenMP Integral computing Module                
 Release: version 1.0, May 2013, Q-Chem Inc. Pittsburgh 
 -------------------------------------------------------
 using 16 threads for integral computing
 -------------------------------------------------------
 OpenMP Integral computing Module                
 Release: version 1.0, May 2013, Q-Chem Inc. Pittsburgh 
 -------------------------------------------------------
 -------------------------------------------------------
 OpenMP BLAS3 based DFT computing Module                
 Release: version 1.0, May 2013, Q-Chem Inc. Pittsburgh 
 -------------------------------------------------------
 A unrestricted SCF calculation will be
 performed using DIIS
 SCF converges when DIIS error is below 1.0e-08
 ---------------------------------------
  Cycle       Energy         DIIS error
 ---------------------------------------
    1    -317.3626436197      1.45e-03  
    2    -317.3827886915      2.07e-04  
    3    -317.3841096352      1.69e-04  
    4    -317.3845812148      7.10e-05  
    5    -317.3847445901      2.96e-05  
    6    -317.3848092415      1.74e-05  
    7    -317.3848286244      1.01e-05  
    8    -317.3848412066      4.88e-06  
    9    -317.3848445970      2.21e-06  
   10    -317.3848450509      7.73e-07  
   11    -317.3848451158      2.99e-07  
   12    -317.3848451212      1.24e-07  
   13    -317.3848451219      3.93e-08  
   14    -317.3848451220      1.55e-08  
   15    -317.3848451220      4.12e-09  Convergence criterion met
 ---------------------------------------
 SCF time:   CPU 462.21s  wall 32.00s 
<S^2> =         -0.000000000
 SCF   energy in the final basis set =     -317.3848451220
 Total energy in the final basis set =     -317.3848451220
 No wavefunction analysis requested
 Calculating analytic gradient of the SCF energy
 Gradient of SCF Energy
            1           2           3           4           5           6
    1   0.0004044  -0.0013817  -0.0023055  -0.0000154  -0.0025051   0.0065465
    2   0.0025311  -0.0000967  -0.0043554  -0.0041748   0.0021768   0.0037734
    3   0.0011956  -0.0045916   0.0017087  -0.0065004   0.0010286   0.0068966
            7           8           9
    1  -0.0005418  -0.0001326  -0.0000688
    2  -0.0000187   0.0004615  -0.0002972
    3   0.0002130   0.0001638  -0.0001142
 Max gradient component =       6.897E-03
 RMS gradient           =       2.952E-03
 Gradient time:  CPU 84.18 s  wall 5.90 s
 Geometry Optimization Parameters
   NAtoms,    NIC,     NZ,  NCons,   NDum,   NFix, NCnnct, MaxDiis
        9      42       0       0       0       0       0       0

 Cartesian Hessian Update
 Hessian Updated using BFGS Update


** GEOMETRY OPTIMIZATION IN DELOCALIZED INTERNAL COORDINATES **
   Searching for a Minimum

   Optimization Cycle:   5

                       Coordinates (Angstroms)
     ATOM                X               Y               Z
      1  C        -1.5914089181   -0.2068419002    0.3104937600
      2  C         0.6885805975   -0.3776923670   -0.5726534557
      3  N        -0.3069461306   -0.7560626572   -0.0508189893
      4  O         2.3514869557    1.0334410605    0.6581115532
      5  N         2.7348773146    0.6130507190   -0.3787584975
      6  N         1.7807482888   -0.1084011174   -1.1245737288
      7  H        -1.8109709716   -0.4744186272    1.3426997066
      8  H        -1.6037235206    0.8777844361    0.2031453295
      9  H        -2.3562666157   -0.6489165464   -0.3276326781
   Point Group: c1    Number of degrees of freedom:    21


   Energy is   -317.384845122

 Hessian Updated using BFGS Update

 21 Hessian modes will be used to form the next step
  Hessian Eigenvalues:
     0.002336    0.009645    0.010327    0.068934    0.098854    0.103237
     0.160083    0.160495    0.161230    0.196574    0.201924    0.237631
     0.261807    0.338225    0.338345    0.339646    0.394986    0.525750
     0.802786    0.943193    1.026193

 Minimum Search - Taking Simple RFO Step
 Searching for Lamda that Minimizes Along All modes
 Value Taken    Lamda =  -0.00099084
 Step Taken.  Stepsize is  0.234590

                             Maximum     Tolerance    Cnvgd?
         Gradient           0.007043      0.000100      NO
         Displacement       0.110242      0.000400      NO
         Energy change     -0.000144      0.000000      NO


 New Cartesian Coordinates Obtained by Inverse Iteration

 Displacement from previous Coordinates is:  0.412292
 Adding empirical dispersion correction 
 ----------------------------------------------------------------
 Doing -D3(0) with
 s6  =   1.00000
 s8  =   1.00000
 rs6 =   1.28100
 rs8 =   1.09400
 -D3 energy without 3body term =     -0.0012865225 hartrees
 ----------------------------------------------------------------
             Standard Nuclear Orientation (Angstroms)
    I     Atom           X                Y                Z
 ----------------------------------------------------------------
    1      C      -1.6143899321    -0.2145043215     0.3065012101
    2      C       0.6787196548    -0.3143220984    -0.5670475612
    3      N      -0.3036281866    -0.7066894802    -0.0323501306
    4      O       2.4411959491     0.9913785465     0.6770466611
    5      N       2.7827799320     0.5520842363    -0.3724714770
    6      N       1.7549304149    -0.0426611670    -1.1453263008
    7      H      -1.8115954081    -0.4448576958     1.3522534386
    8      H      -1.6875395020     0.8614481481     0.1472960848
    9      H      -2.3540959221    -0.7299331680    -0.3058889249
 ----------------------------------------------------------------
 Nuclear Repulsion Energy =   206.4157102054 hartrees
 There are       22 alpha and       22 beta electrons
 Applying Cartesian multipole field
    Component          Value
    ---------          -----
     (2,0,0)        1.00000E-11
     (0,2,0)        2.00000E-10
     (0,0,2)       -3.00000E-11
 Nucleus-field energy     =     0.0000000149 hartrees
 Requested basis set is def2-TZVP
 There are 78 shells and 204 basis functions
 A cutoff of  1.0D-11 yielded   2752 shell pairs
 There are     19238 function pairs (     25376 Cartesian)
 Smallest overlap matrix eigenvalue = 1.07E-04
 Guess MOs from SCF MO coefficient file
 Reading MOs from coefficient file
 Reading MOs from coefficient file

 -----------------------------------------------------------------------
  General SCF calculation program by
  Eric Jon Sundstrom, Paul Horn, Yuezhi Mao, Dmitri Zuev, Alec White,
  David Stuck, Shaama M.S., Shane Yost, Joonho Lee, David Small,
  Daniel Levine, Susi Lehtola, Hugh Burton, Evgeny Epifanovsky
 -----------------------------------------------------------------------
 Exchange:     0.1957 Hartree-Fock + 1.0000 wB97X-D3 + LR-HF
 Correlation:  1.0000 wB97X-D3
 Using SG-2 standard quadrature grid
 Dispersion:   Grimme D3
 using 16 threads for integral computing
 -------------------------------------------------------
 OpenMP Integral computing Module                
 Release: version 1.0, May 2013, Q-Chem Inc. Pittsburgh 
 -------------------------------------------------------
 using 16 threads for integral computing
 -------------------------------------------------------
 OpenMP Integral computing Module                
 Release: version 1.0, May 2013, Q-Chem Inc. Pittsburgh 
 -------------------------------------------------------
 -------------------------------------------------------
 OpenMP BLAS3 based DFT computing Module                
 Release: version 1.0, May 2013, Q-Chem Inc. Pittsburgh 
 -------------------------------------------------------
 A unrestricted SCF calculation will be
 performed using DIIS
 SCF converges when DIIS error is below 1.0e-08
 ---------------------------------------
  Cycle       Energy         DIIS error
 ---------------------------------------
    1    -317.3672952677      9.42e-04  
    2    -317.3841143112      1.19e-04  
    3    -317.3849667096      6.66e-05  
    4    -317.3851479159      4.02e-05  
    5    -317.3852476706      2.65e-05  
    6    -317.3852900192      1.41e-05  
    7    -317.3853114569      6.62e-06  
    8    -317.3853196148      2.05e-06  
    9    -317.3853201946      9.94e-07  
   10    -317.3853202532      5.90e-07  
   11    -317.3853202709      1.63e-07  
   12    -317.3853202726      9.22e-08  
   13    -317.3853202729      2.42e-08  
   14    -317.3853202729      6.27e-09  Convergence criterion met
 ---------------------------------------
 SCF time:   CPU 424.46s  wall 29.00s 
<S^2> =         -0.000000000
 SCF   energy in the final basis set =     -317.3853202729
 Total energy in the final basis set =     -317.3853202729
 No wavefunction analysis requested
 Calculating analytic gradient of the SCF energy
 Gradient of SCF Energy
            1           2           3           4           5           6
    1  -0.0009443  -0.0003454  -0.0006406  -0.0022997   0.0024001   0.0016483
    2   0.0012431  -0.0013032  -0.0018518   0.0013962  -0.0025976   0.0032300
    3  -0.0006629  -0.0036290   0.0035146   0.0033265  -0.0050844   0.0025240
            7           8           9
    1   0.0002798   0.0002371  -0.0003353
    2  -0.0002687   0.0003237  -0.0001717
    3   0.0003123  -0.0000409  -0.0002601
 Max gradient component =       5.084E-03
 RMS gradient           =       2.026E-03
 Gradient time:  CPU 83.27 s  wall 5.82 s
 Geometry Optimization Parameters
   NAtoms,    NIC,     NZ,  NCons,   NDum,   NFix, NCnnct, MaxDiis
        9      42       0       0       0       0       0       0

 Cartesian Hessian Update
 Hessian Updated using BFGS Update


** GEOMETRY OPTIMIZATION IN DELOCALIZED INTERNAL COORDINATES **
   Searching for a Minimum

   Optimization Cycle:   6

                       Coordinates (Angstroms)
     ATOM                X               Y               Z
      1  C        -1.6143899321   -0.2145043215    0.3065012101
      2  C         0.6787196548   -0.3143220984   -0.5670475612
      3  N        -0.3036281866   -0.7066894802   -0.0323501306
      4  O         2.4411959491    0.9913785465    0.6770466611
      5  N         2.7827799320    0.5520842363   -0.3724714770
      6  N         1.7549304149   -0.0426611670   -1.1453263008
      7  H        -1.8115954081   -0.4448576958    1.3522534386
      8  H        -1.6875395020    0.8614481481    0.1472960848
      9  H        -2.3540959221   -0.7299331680   -0.3058889249
   Point Group: c1    Number of degrees of freedom:    21


   Energy is   -317.385320273

 Hessian Updated using BFGS Update

 21 Hessian modes will be used to form the next step
  Hessian Eigenvalues:
     0.002360    0.009622    0.014181    0.066682    0.099017    0.103185
     0.160156    0.160961    0.162232    0.172066    0.201018    0.231659
     0.255867    0.337803    0.338316    0.339401    0.392801    0.501601
     0.815628    0.960999    1.026448

 Minimum Search - Taking Simple RFO Step
 Searching for Lamda that Minimizes Along All modes
 Value Taken    Lamda =  -0.00020623
 Step Taken.  Stepsize is  0.125509

                             Maximum     Tolerance    Cnvgd?
         Gradient           0.004141      0.000100      NO
         Displacement       0.064816      0.000400      NO
         Energy change     -0.000475      0.000000      NO


 New Cartesian Coordinates Obtained by Inverse Iteration

 Displacement from previous Coordinates is:  0.242786
 Adding empirical dispersion correction 
 ----------------------------------------------------------------
 Doing -D3(0) with
 s6  =   1.00000
 s8  =   1.00000
 rs6 =   1.28100
 rs8 =   1.09400
 -D3 energy without 3body term =     -0.0012803123 hartrees
 ----------------------------------------------------------------
             Standard Nuclear Orientation (Angstroms)
    I     Atom           X                Y                Z
 ----------------------------------------------------------------
    1      C      -1.6192181973    -0.2148622191     0.3050188954
    2      C       0.6782116719    -0.2912290581    -0.5670143041
    3      N      -0.2975676891    -0.6822414268    -0.0213228216
    4      O       2.4760946364     0.9190558730     0.7077366355
    5      N       2.7820486795     0.5806237507    -0.3855394228
    6      N       1.7477305078    -0.0277415595    -1.1584900767
    7      H      -1.8106087403    -0.4119014900     1.3581882892
    8      H      -1.7247544892     0.8515423516     0.1074937836
    9      H      -2.3455593798    -0.7713032217    -0.2860579785
 ----------------------------------------------------------------
 Nuclear Repulsion Energy =   206.3389976563 hartrees
 There are       22 alpha and       22 beta electrons
 Applying Cartesian multipole field
    Component          Value
    ---------          -----
     (2,0,0)        1.00000E-11
     (0,2,0)        2.00000E-10
     (0,0,2)       -3.00000E-11
 Nucleus-field energy     =     0.0000000140 hartrees
 Requested basis set is def2-TZVP
 There are 78 shells and 204 basis functions
 A cutoff of  1.0D-11 yielded   2752 shell pairs
 There are     19242 function pairs (     25381 Cartesian)
 Smallest overlap matrix eigenvalue = 1.07E-04
 Guess MOs from SCF MO coefficient file
 Reading MOs from coefficient file
 Reading MOs from coefficient file

 -----------------------------------------------------------------------
  General SCF calculation program by
  Eric Jon Sundstrom, Paul Horn, Yuezhi Mao, Dmitri Zuev, Alec White,
  David Stuck, Shaama M.S., Shane Yost, Joonho Lee, David Small,
  Daniel Levine, Susi Lehtola, Hugh Burton, Evgeny Epifanovsky
 -----------------------------------------------------------------------
 Exchange:     0.1957 Hartree-Fock + 1.0000 wB97X-D3 + LR-HF
 Correlation:  1.0000 wB97X-D3
 Using SG-2 standard quadrature grid
 Dispersion:   Grimme D3
 using 16 threads for integral computing
 -------------------------------------------------------
 OpenMP Integral computing Module                
 Release: version 1.0, May 2013, Q-Chem Inc. Pittsburgh 
 -------------------------------------------------------
 using 16 threads for integral computing
 -------------------------------------------------------
 OpenMP Integral computing Module                
 Release: version 1.0, May 2013, Q-Chem Inc. Pittsburgh 
 -------------------------------------------------------
 -------------------------------------------------------
 OpenMP BLAS3 based DFT computing Module                
 Release: version 1.0, May 2013, Q-Chem Inc. Pittsburgh 
 -------------------------------------------------------
 A unrestricted SCF calculation will be
 performed using DIIS
 SCF converges when DIIS error is below 1.0e-08
 ---------------------------------------
  Cycle       Energy         DIIS error
 ---------------------------------------
    1    -317.3657776015      1.02e-03  
    2    -317.3841099025      1.48e-04  
    3    -317.3850216405      1.08e-04  
    4    -317.3852757836      4.82e-05  
    5    -317.3853629247      2.89e-05  
    6    -317.3853984560      1.44e-05  
    7    -317.3854107841      5.97e-06  
    8    -317.3854150875      4.00e-06  
    9    -317.3854162886      1.57e-06  
   10    -317.3854165954      7.59e-07  
   11    -317.3854166907      3.87e-07  
   12    -317.3854167002      1.12e-07  
   13    -317.3854167016      4.35e-08  
   14    -317.3854167018      1.46e-08  
   15    -317.3854167018      3.95e-09  Convergence criterion met
 ---------------------------------------
 SCF time:   CPU 470.79s  wall 31.00s 
<S^2> =         -0.000000000
 SCF   energy in the final basis set =     -317.3854167018
 Total energy in the final basis set =     -317.3854167018
 No wavefunction analysis requested
 Calculating analytic gradient of the SCF energy
 Gradient of SCF Energy
            1           2           3           4           5           6
    1  -0.0005489   0.0004971   0.0009489  -0.0003624   0.0010466  -0.0015489
    2   0.0011006   0.0018288  -0.0025030   0.0004615  -0.0001753  -0.0007304
    3  -0.0005411  -0.0033924   0.0023614   0.0018129  -0.0010911   0.0008070
            7           8           9
    1  -0.0000187   0.0000544  -0.0000682
    2  -0.0000222  -0.0000239   0.0000640
    3  -0.0000237   0.0000388   0.0000282
 Max gradient component =       3.392E-03
 RMS gradient           =       1.205E-03
 Gradient time:  CPU 84.72 s  wall 5.96 s
 Geometry Optimization Parameters
   NAtoms,    NIC,     NZ,  NCons,   NDum,   NFix, NCnnct, MaxDiis
        9      42       0       0       0       0       0       0

 Cartesian Hessian Update
 Hessian Updated using BFGS Update


** GEOMETRY OPTIMIZATION IN DELOCALIZED INTERNAL COORDINATES **
   Searching for a Minimum

   Optimization Cycle:   7

                       Coordinates (Angstroms)
     ATOM                X               Y               Z
      1  C        -1.6192181973   -0.2148622191    0.3050188954
      2  C         0.6782116719   -0.2912290581   -0.5670143041
      3  N        -0.2975676891   -0.6822414268   -0.0213228216
      4  O         2.4760946364    0.9190558730    0.7077366355
      5  N         2.7820486795    0.5806237507   -0.3855394228
      6  N         1.7477305078   -0.0277415595   -1.1584900767
      7  H        -1.8106087403   -0.4119014900    1.3581882892
      8  H        -1.7247544892    0.8515423516    0.1074937836
      9  H        -2.3455593798   -0.7713032217   -0.2860579785
   Point Group: c1    Number of degrees of freedom:    21


   Energy is   -317.385416702

 Hessian Updated using BFGS Update

 21 Hessian modes will be used to form the next step
  Hessian Eigenvalues:
     0.003362    0.009441    0.013614    0.090490    0.097119    0.103468
     0.106325    0.160285    0.161297    0.162624    0.204958    0.226461
     0.262796    0.338073    0.338291    0.339364    0.388925    0.491341
     0.824088    0.915684    1.026725

 Minimum Search - Taking Simple RFO Step
 Searching for Lamda that Minimizes Along All modes
 Value Taken    Lamda =  -0.00014482
 Step Taken.  Stepsize is  0.075626

                             Maximum     Tolerance    Cnvgd?
         Gradient           0.001665      0.000100      NO
         Displacement       0.050072      0.000400      NO
         Energy change     -0.000096      0.000000      NO


 New Cartesian Coordinates Obtained by Inverse Iteration

 Displacement from previous Coordinates is:  0.160320
 Adding empirical dispersion correction 
 ----------------------------------------------------------------
 Doing -D3(0) with
 s6  =   1.00000
 s8  =   1.00000
 rs6 =   1.28100
 rs8 =   1.09400
 -D3 energy without 3body term =     -0.0012773966 hartrees
 ----------------------------------------------------------------
             Standard Nuclear Orientation (Angstroms)
    I     Atom           X                Y                Z
 ----------------------------------------------------------------
    1      C      -1.6219861717    -0.2144250233     0.3065725594
    2      C       0.6834460431    -0.2977995866    -0.5639924426
    3      N      -0.3058134642    -0.6777253556    -0.0390904182
    4      O       2.4663657363     0.9669041430     0.6867612975
    5      N       2.7899302252     0.5620939826    -0.3779723604
    6      N       1.7626045803    -0.0541542917    -1.1484342091
    7      H      -1.8113204944    -0.4394104704     1.3542566382
    8      H      -1.7243351935     0.8571440287     0.1390535482
    9      H      -2.3525142612    -0.7506844267    -0.2971416131
 ----------------------------------------------------------------
 Nuclear Repulsion Energy =   206.2939858667 hartrees
 There are       22 alpha and       22 beta electrons
 Applying Cartesian multipole field
    Component          Value
    ---------          -----
     (2,0,0)        1.00000E-11
     (0,2,0)        2.00000E-10
     (0,0,2)       -3.00000E-11
 Nucleus-field energy     =     0.0000000145 hartrees
 Requested basis set is def2-TZVP
 There are 78 shells and 204 basis functions
 A cutoff of  1.0D-11 yielded   2749 shell pairs
 There are     19187 function pairs (     25297 Cartesian)
 Smallest overlap matrix eigenvalue = 1.07E-04
 Guess MOs from SCF MO coefficient file
 Reading MOs from coefficient file
 Reading MOs from coefficient file

 -----------------------------------------------------------------------
  General SCF calculation program by
  Eric Jon Sundstrom, Paul Horn, Yuezhi Mao, Dmitri Zuev, Alec White,
  David Stuck, Shaama M.S., Shane Yost, Joonho Lee, David Small,
  Daniel Levine, Susi Lehtola, Hugh Burton, Evgeny Epifanovsky
 -----------------------------------------------------------------------
 Exchange:     0.1957 Hartree-Fock + 1.0000 wB97X-D3 + LR-HF
 Correlation:  1.0000 wB97X-D3
 Using SG-2 standard quadrature grid
 Dispersion:   Grimme D3
 using 16 threads for integral computing
 -------------------------------------------------------
 OpenMP Integral computing Module                
 Release: version 1.0, May 2013, Q-Chem Inc. Pittsburgh 
 -------------------------------------------------------
 using 16 threads for integral computing
 -------------------------------------------------------
 OpenMP Integral computing Module                
 Release: version 1.0, May 2013, Q-Chem Inc. Pittsburgh 
 -------------------------------------------------------
 -------------------------------------------------------
 OpenMP BLAS3 based DFT computing Module                
 Release: version 1.0, May 2013, Q-Chem Inc. Pittsburgh 
 -------------------------------------------------------
 A unrestricted SCF calculation will be
 performed using DIIS
 SCF converges when DIIS error is below 1.0e-08
 ---------------------------------------
  Cycle       Energy         DIIS error
 ---------------------------------------
    1    -317.3803341917      7.24e-04  
    2    -317.3850321071      9.00e-05  
    3    -317.3854073141      5.41e-05  
    4    -317.3854739002      2.73e-05  
    5    -317.3855004372      1.30e-05  
    6    -317.3855083750      6.47e-06  
    7    -317.3855104304      3.14e-06  
    8    -317.3855114182      1.91e-06  
    9    -317.3855116624      8.89e-07  
   10    -317.3855117372      4.44e-07  
   11    -317.3855117669      1.91e-07  
   12    -317.3855117698      7.04e-08  
   13    -317.3855117704      2.95e-08  
   14    -317.3855117705      8.73e-09  Convergence criterion met
 ---------------------------------------
 SCF time:   CPU 420.24s  wall 29.00s 
<S^2> =         -0.000000000
 SCF   energy in the final basis set =     -317.3855117705
 Total energy in the final basis set =     -317.3855117705
 No wavefunction analysis requested
 Calculating analytic gradient of the SCF energy
 Gradient of SCF Energy
            1           2           3           4           5           6
    1  -0.0003871   0.0005266   0.0010598   0.0009161  -0.0006986  -0.0014201
    2   0.0010648   0.0012970  -0.0018402   0.0002922   0.0003409  -0.0011250
    3   0.0000541  -0.0015171   0.0004322   0.0001035   0.0012263  -0.0003216
            7           8           9
    1  -0.0001273  -0.0001038   0.0002345
    2   0.0000435  -0.0002408   0.0001676
    3  -0.0002067   0.0001279   0.0001013
 Max gradient component =       1.840E-03
 RMS gradient           =       7.914E-04
 Gradient time:  CPU 70.71 s  wall 5.14 s
 Geometry Optimization Parameters
   NAtoms,    NIC,     NZ,  NCons,   NDum,   NFix, NCnnct, MaxDiis
        9      42       0       0       0       0       0       0

 Cartesian Hessian Update
 Hessian Updated using BFGS Update


** GEOMETRY OPTIMIZATION IN DELOCALIZED INTERNAL COORDINATES **
   Searching for a Minimum

   Optimization Cycle:   8

                       Coordinates (Angstroms)
     ATOM                X               Y               Z
      1  C        -1.6219861717   -0.2144250233    0.3065725594
      2  C         0.6834460431   -0.2977995866   -0.5639924426
      3  N        -0.3058134642   -0.6777253556   -0.0390904182
      4  O         2.4663657363    0.9669041430    0.6867612975
      5  N         2.7899302252    0.5620939826   -0.3779723604
      6  N         1.7626045803   -0.0541542917   -1.1484342091
      7  H        -1.8113204944   -0.4394104704    1.3542566382
      8  H        -1.7243351935    0.8571440287    0.1390535482
      9  H        -2.3525142612   -0.7506844267   -0.2971416131
   Point Group: c1    Number of degrees of freedom:    21


   Energy is   -317.385511770

 Hessian Updated using BFGS Update

 21 Hessian modes will be used to form the next step
  Hessian Eigenvalues:
     0.005094    0.008162    0.014734    0.040578    0.098903    0.103282
     0.108299    0.160314    0.161864    0.163190    0.204369    0.218647
     0.260395    0.338209    0.338966    0.340239    0.387365    0.543332
     0.828762    0.910907    1.006651

 Minimum Search - Taking Simple RFO Step
 Searching for Lamda that Minimizes Along All modes
 Value Taken    Lamda =  -0.00019263
 Step Taken.  Stepsize is  0.120024

                             Maximum     Tolerance    Cnvgd?
         Gradient           0.001620      0.000100      NO
         Displacement       0.058450      0.000400      NO
         Energy change     -0.000095      0.000000      NO


 New Cartesian Coordinates Obtained by Inverse Iteration

 Displacement from previous Coordinates is:  0.258264
 Adding empirical dispersion correction 
 ----------------------------------------------------------------
 Doing -D3(0) with
 s6  =   1.00000
 s8  =   1.00000
 rs6 =   1.28100
 rs8 =   1.09400
 -D3 energy without 3body term =     -0.0012551415 hartrees
 ----------------------------------------------------------------
             Standard Nuclear Orientation (Angstroms)
    I     Atom           X                Y                Z
 ----------------------------------------------------------------
    1      C      -1.6411626196    -0.2171798184     0.3041033045
    2      C       0.6877422274    -0.2583952350    -0.5485712314
    3      N      -0.3118058658    -0.6261550939    -0.0428300789
    4      O       2.5219669800     0.9226900463     0.6937033118
    5      N       2.8104371004     0.5551370555    -0.3973221751
    6      N       1.7738049227    -0.0441134169    -1.1388516170
    7      H      -1.8127339534    -0.4286622267     1.3577024226
    8      H      -1.7907142821     0.8454648609     0.1158426906
    9      H      -2.3511575098    -0.7968431717    -0.2837636271
 ----------------------------------------------------------------
 Nuclear Repulsion Energy =   206.2877428628 hartrees
 There are       22 alpha and       22 beta electrons
 Applying Cartesian multipole field
    Component          Value
    ---------          -----
     (2,0,0)        1.00000E-11
     (0,2,0)        2.00000E-10
     (0,0,2)       -3.00000E-11
 Nucleus-field energy     =     0.0000000137 hartrees
 Requested basis set is def2-TZVP
 There are 78 shells and 204 basis functions
 A cutoff of  1.0D-11 yielded   2745 shell pairs
 There are     19165 function pairs (     25275 Cartesian)
 Smallest overlap matrix eigenvalue = 1.08E-04
 Guess MOs from SCF MO coefficient file
 Reading MOs from coefficient file
 Reading MOs from coefficient file

 -----------------------------------------------------------------------
  General SCF calculation program by
  Eric Jon Sundstrom, Paul Horn, Yuezhi Mao, Dmitri Zuev, Alec White,
  David Stuck, Shaama M.S., Shane Yost, Joonho Lee, David Small,
  Daniel Levine, Susi Lehtola, Hugh Burton, Evgeny Epifanovsky
 -----------------------------------------------------------------------
 Exchange:     0.1957 Hartree-Fock + 1.0000 wB97X-D3 + LR-HF
 Correlation:  1.0000 wB97X-D3
 Using SG-2 standard quadrature grid
 Dispersion:   Grimme D3
 using 16 threads for integral computing
 -------------------------------------------------------
 OpenMP Integral computing Module                
 Release: version 1.0, May 2013, Q-Chem Inc. Pittsburgh 
 -------------------------------------------------------
 using 16 threads for integral computing
 -------------------------------------------------------
 OpenMP Integral computing Module                
 Release: version 1.0, May 2013, Q-Chem Inc. Pittsburgh 
 -------------------------------------------------------
 -------------------------------------------------------
 OpenMP BLAS3 based DFT computing Module                
 Release: version 1.0, May 2013, Q-Chem Inc. Pittsburgh 
 -------------------------------------------------------
 A unrestricted SCF calculation will be
 performed using DIIS
 SCF converges when DIIS error is below 1.0e-08
 ---------------------------------------
  Cycle       Energy         DIIS error
 ---------------------------------------
    1    -317.3869386979      6.93e-04  
    2    -317.3851443977      1.13e-04  
    3    -317.3853457978      1.21e-04  
    4    -317.3855620423      3.01e-05  
    5    -317.3855879127      1.57e-05  
    6    -317.3855966636      7.73e-06  
    7    -317.3855994088      3.50e-06  
    8    -317.3856002639      1.99e-06  
    9    -317.3856006061      6.73e-07  
   10    -317.3856006585      3.45e-07  
   11    -317.3856006776      1.81e-07  
   12    -317.3856006819      6.75e-08  
   13    -317.3856006825      2.50e-08  
   14    -317.3856006826      7.77e-09  Convergence criterion met
 ---------------------------------------
 SCF time:   CPU 387.43s  wall 25.00s 
<S^2> =         -0.000000000
 SCF   energy in the final basis set =     -317.3856006826
 Total energy in the final basis set =     -317.3856006826
 No wavefunction analysis requested
 Calculating analytic gradient of the SCF energy
 Gradient of SCF Energy
            1           2           3           4           5           6
    1   0.0001156  -0.0005509   0.0013358   0.0007238  -0.0025939   0.0008239
    2   0.0007314   0.0030972  -0.0020679  -0.0006068  -0.0002066  -0.0008790
    3  -0.0001258  -0.0000721  -0.0002412  -0.0015214   0.0007444   0.0012356
            7           8           9
    1  -0.0000194  -0.0000701   0.0002353
    2   0.0000123  -0.0001718   0.0000911
    3  -0.0002300   0.0001197   0.0000908
 Max gradient component =       3.097E-03
 RMS gradient           =       1.059E-03
 Gradient time:  CPU 72.52 s  wall 5.43 s
 Geometry Optimization Parameters
   NAtoms,    NIC,     NZ,  NCons,   NDum,   NFix, NCnnct, MaxDiis
        9      42       0       0       0       0       0       0

 Cartesian Hessian Update
 Hessian Updated using BFGS Update


** GEOMETRY OPTIMIZATION IN DELOCALIZED INTERNAL COORDINATES **
   Searching for a Minimum

   Optimization Cycle:   9

                       Coordinates (Angstroms)
     ATOM                X               Y               Z
      1  C        -1.6411626196   -0.2171798184    0.3041033045
      2  C         0.6877422274   -0.2583952350   -0.5485712314
      3  N        -0.3118058658   -0.6261550939   -0.0428300789
      4  O         2.5219669800    0.9226900463    0.6937033118
      5  N         2.8104371004    0.5551370555   -0.3973221751
      6  N         1.7738049227   -0.0441134169   -1.1388516170
      7  H        -1.8127339534   -0.4286622267    1.3577024226
      8  H        -1.7907142821    0.8454648609    0.1158426906
      9  H        -2.3511575098   -0.7968431717   -0.2837636271
   Point Group: c1    Number of degrees of freedom:    21


   Energy is   -317.385600683

 Hessian Updated using BFGS Update

 21 Hessian modes will be used to form the next step
  Hessian Eigenvalues:
     0.005702    0.007451    0.014715    0.037633    0.099054    0.103286
     0.124755    0.160658    0.161911    0.162824    0.206969    0.216890
     0.265569    0.338172    0.338628    0.339590    0.389868    0.531771
     0.826147    0.933201    1.007246

 Minimum Search - Taking Simple RFO Step
 Searching for Lamda that Minimizes Along All modes
 Value Taken    Lamda =  -0.00006619
 Step Taken.  Stepsize is  0.034749

                             Maximum     Tolerance    Cnvgd?
         Gradient           0.001754      0.000100      NO
         Displacement       0.019459      0.000400      NO
         Energy change     -0.000089      0.000000      NO


 New Cartesian Coordinates Obtained by Inverse Iteration

 Displacement from previous Coordinates is:  0.051128
 Adding empirical dispersion correction 
 ----------------------------------------------------------------
 Doing -D3(0) with
 s6  =   1.00000
 s8  =   1.00000
 rs6 =   1.28100
 rs8 =   1.09400
 -D3 energy without 3body term =     -0.0012518955 hartrees
 ----------------------------------------------------------------
             Standard Nuclear Orientation (Angstroms)
    I     Atom           X                Y                Z
 ----------------------------------------------------------------
    1      C      -1.6457925329    -0.2178761362     0.3040719906
    2      C       0.6894152600    -0.2560129341    -0.5492267805
    3      N      -0.3164597215    -0.6160668991    -0.0504601168
    4      O       2.5273910870     0.9293852958     0.6915601394
    5      N       2.8217475336     0.5477936837    -0.3937594143
    6      N       1.7786449657    -0.0471133207    -1.1381617535
    7      H      -1.8100162583    -0.4323225272     1.3586547420
    8      H      -1.8025521899     0.8446601960     0.1186887366
    9      H      -2.3560011437    -0.8005043581    -0.2813545435
 ----------------------------------------------------------------
 Nuclear Repulsion Energy =   206.0207898638 hartrees
 There are       22 alpha and       22 beta electrons
 Applying Cartesian multipole field
    Component          Value
    ---------          -----
     (2,0,0)        1.00000E-11
     (0,2,0)        2.00000E-10
     (0,0,2)       -3.00000E-11
 Nucleus-field energy     =     0.0000000137 hartrees
 Requested basis set is def2-TZVP
 There are 78 shells and 204 basis functions
 A cutoff of  1.0D-11 yielded   2744 shell pairs
 There are     19156 function pairs (     25266 Cartesian)
 Smallest overlap matrix eigenvalue = 1.08E-04
 Guess MOs from SCF MO coefficient file
 Reading MOs from coefficient file
 Reading MOs from coefficient file

 -----------------------------------------------------------------------
  General SCF calculation program by
  Eric Jon Sundstrom, Paul Horn, Yuezhi Mao, Dmitri Zuev, Alec White,
  David Stuck, Shaama M.S., Shane Yost, Joonho Lee, David Small,
  Daniel Levine, Susi Lehtola, Hugh Burton, Evgeny Epifanovsky
 -----------------------------------------------------------------------
 Exchange:     0.1957 Hartree-Fock + 1.0000 wB97X-D3 + LR-HF
 Correlation:  1.0000 wB97X-D3
 Using SG-2 standard quadrature grid
 Dispersion:   Grimme D3
 using 16 threads for integral computing
 -------------------------------------------------------
 OpenMP Integral computing Module                
 Release: version 1.0, May 2013, Q-Chem Inc. Pittsburgh 
 -------------------------------------------------------
 using 16 threads for integral computing
 -------------------------------------------------------
 OpenMP Integral computing Module                
 Release: version 1.0, May 2013, Q-Chem Inc. Pittsburgh 
 -------------------------------------------------------
 -------------------------------------------------------
 OpenMP BLAS3 based DFT computing Module                
 Release: version 1.0, May 2013, Q-Chem Inc. Pittsburgh 
 -------------------------------------------------------
 A unrestricted SCF calculation will be
 performed using DIIS
 SCF converges when DIIS error is below 1.0e-08
 ---------------------------------------
  Cycle       Energy         DIIS error
 ---------------------------------------
    1    -317.3801613537      2.00e-04  
    2    -317.3855988245      2.79e-05  
    3    -317.3856206904      2.63e-05  
    4    -317.3856325005      1.07e-05  
    5    -317.3856358207      4.19e-06  
    6    -317.3856368641      2.32e-06  
    7    -317.3856372181      1.14e-06  
    8    -317.3856373687      6.82e-07  
    9    -317.3856374161      2.88e-07  
   10    -317.3856374258      1.23e-07  
   11    -317.3856374281      5.81e-08  
   12    -317.3856374283      2.02e-08  
   13    -317.3856374284      7.75e-09  Convergence criterion met
 ---------------------------------------
 SCF time:   CPU 351.12s  wall 24.00s 
<S^2> =         -0.000000000
 SCF   energy in the final basis set =     -317.3856374284
 Total energy in the final basis set =     -317.3856374284
 No wavefunction analysis requested
 Calculating analytic gradient of the SCF energy
 Gradient of SCF Energy
            1           2           3           4           5           6
    1   0.0001923  -0.0004913  -0.0002873  -0.0003085   0.0008279   0.0000714
    2   0.0002924   0.0023271  -0.0016861  -0.0001119   0.0002181  -0.0010285
    3  -0.0000875   0.0004128   0.0000520  -0.0000354  -0.0000584  -0.0003011
            7           8           9
    1   0.0000121   0.0000016  -0.0000183
    2  -0.0000413   0.0000435  -0.0000132
    3   0.0000044   0.0000517  -0.0000385
 Max gradient component =       2.327E-03
 RMS gradient           =       6.352E-04
 Gradient time:  CPU 69.92 s  wall 4.98 s
 Geometry Optimization Parameters
   NAtoms,    NIC,     NZ,  NCons,   NDum,   NFix, NCnnct, MaxDiis
        9      42       0       0       0       0       0       0

 Cartesian Hessian Update
 Hessian Updated using BFGS Update


** GEOMETRY OPTIMIZATION IN DELOCALIZED INTERNAL COORDINATES **
   Searching for a Minimum

   Optimization Cycle:  10

                       Coordinates (Angstroms)
     ATOM                X               Y               Z
      1  C        -1.6457925329   -0.2178761362    0.3040719906
      2  C         0.6894152600   -0.2560129341   -0.5492267805
      3  N        -0.3164597215   -0.6160668991   -0.0504601168
      4  O         2.5273910870    0.9293852958    0.6915601394
      5  N         2.8217475336    0.5477936837   -0.3937594143
      6  N         1.7786449657   -0.0471133207   -1.1381617535
      7  H        -1.8100162583   -0.4323225272    1.3586547420
      8  H        -1.8025521899    0.8446601960    0.1186887366
      9  H        -2.3560011437   -0.8005043581   -0.2813545435
   Point Group: c1    Number of degrees of freedom:    21


   Energy is   -317.385637428

 Hessian Updated using BFGS Update

 21 Hessian modes will be used to form the next step
  Hessian Eigenvalues:
     0.005730    0.007359    0.014650    0.038188    0.099033    0.103076
     0.113989    0.155382    0.161133    0.161993    0.172348    0.210298
     0.298170    0.338198    0.339021    0.341002    0.388540    0.548237
     0.850560    0.964768    1.022731

 Minimum Search - Taking Simple RFO Step
 Searching for Lamda that Minimizes Along All modes
 Value Taken    Lamda =  -0.00003221
 Step Taken.  Stepsize is  0.033861

                             Maximum     Tolerance    Cnvgd?
         Gradient           0.001053      0.000100      NO
         Displacement       0.020538      0.000400      NO
         Energy change     -0.000037      0.000000      NO


 New Cartesian Coordinates Obtained by Inverse Iteration

 Displacement from previous Coordinates is:  0.083692
 Adding empirical dispersion correction 
 ----------------------------------------------------------------
 Doing -D3(0) with
 s6  =   1.00000
 s8  =   1.00000
 rs6 =   1.28100
 rs8 =   1.09400
 -D3 energy without 3body term =     -0.0012500845 hartrees
 ----------------------------------------------------------------
             Standard Nuclear Orientation (Angstroms)
    I     Atom           X                Y                Z
 ----------------------------------------------------------------
    1      C      -1.6487162332    -0.2181485698     0.3034912218
    2      C       0.6904863771    -0.2500457683    -0.5513479185
    3      N      -0.3168678434    -0.6043851044    -0.0527496365
    4      O       2.5379082716     0.9080066181     0.7010326131
    5      N       2.8239197617     0.5504952232    -0.3948105416
    6      N       1.7786306305    -0.0374343951    -1.1415511754
    7      H      -1.8052129211    -0.4204729834     1.3617647147
    8      H      -1.8185463054     0.8401126745     0.1050190989
    9      H      -2.3552247379    -0.8161846949    -0.2708353765
 ----------------------------------------------------------------
 Nuclear Repulsion Energy =   205.9794004914 hartrees
 There are       22 alpha and       22 beta electrons
 Applying Cartesian multipole field
    Component          Value
    ---------          -----
     (2,0,0)        1.00000E-11
     (0,2,0)        2.00000E-10
     (0,0,2)       -3.00000E-11
 Nucleus-field energy     =     0.0000000134 hartrees
 Requested basis set is def2-TZVP
 There are 78 shells and 204 basis functions
 A cutoff of  1.0D-11 yielded   2743 shell pairs
 There are     19153 function pairs (     25263 Cartesian)
 Smallest overlap matrix eigenvalue = 1.06E-04
 Guess MOs from SCF MO coefficient file
 Reading MOs from coefficient file
 Reading MOs from coefficient file

 -----------------------------------------------------------------------
  General SCF calculation program by
  Eric Jon Sundstrom, Paul Horn, Yuezhi Mao, Dmitri Zuev, Alec White,
  David Stuck, Shaama M.S., Shane Yost, Joonho Lee, David Small,
  Daniel Levine, Susi Lehtola, Hugh Burton, Evgeny Epifanovsky
 -----------------------------------------------------------------------
 Exchange:     0.1957 Hartree-Fock + 1.0000 wB97X-D3 + LR-HF
 Correlation:  1.0000 wB97X-D3
 Using SG-2 standard quadrature grid
 Dispersion:   Grimme D3
 using 16 threads for integral computing
 -------------------------------------------------------
 OpenMP Integral computing Module                
 Release: version 1.0, May 2013, Q-Chem Inc. Pittsburgh 
 -------------------------------------------------------
 using 16 threads for integral computing
 -------------------------------------------------------
 OpenMP Integral computing Module                
 Release: version 1.0, May 2013, Q-Chem Inc. Pittsburgh 
 -------------------------------------------------------
 -------------------------------------------------------
[...]
    4  -0.8066723  -0.1664604   0.3346079   0.0061369   0.0205800   0.0443987
    5  -0.2163213  -0.0984695   0.0938249   0.0035934  -0.0063025   0.0112442
    6   0.3445940   0.0762168  -0.1889906  -0.0007362  -0.0134612  -0.0463589
    7   1.1641532   0.1483326  -0.4587996   0.0053548  -0.0083752  -0.0234285
    8   0.1483326   0.1247663  -0.0754844   0.0010411   0.0002712  -0.0146886
    9  -0.4587996  -0.0754844   0.2663800  -0.0071250   0.0055205   0.0201045
   10   0.0053548   0.0010411  -0.0071250   0.1248943  -0.0055208  -0.1260690
   11  -0.0083752   0.0002712   0.0055205  -0.0055208   0.0757528   0.2148206
   12  -0.0234285  -0.0146886   0.0201045  -0.1260690   0.2148206   0.7349978
   13   0.0309238   0.0171955  -0.0164180  -0.1840173   0.0195322   0.2144340
   14   0.0213486   0.0041329  -0.0239396   0.0072552  -0.0549924  -0.1502982
   15   0.0346011   0.0231667  -0.0359735   0.1802176  -0.1596156  -0.6271716
   16  -0.0791329  -0.0513623   0.0665405   0.0473936  -0.0262363  -0.1114775
   17  -0.0380451   0.0132224   0.0347426  -0.0056700  -0.0150817  -0.0649091
   18   0.0381703   0.0099677   0.0015941  -0.0466760  -0.0458010  -0.0793624
   19  -0.0174763  -0.0017196   0.0377130   0.0003299  -0.0001648  -0.0011680
   20   0.0017981   0.0008227  -0.0102476   0.0000482   0.0000050   0.0000726
   21   0.0087547  -0.0008973  -0.0033600  -0.0000194   0.0001367   0.0003377
   22  -0.0263598   0.0301232   0.0017581   0.0005014  -0.0007286  -0.0022934
   23   0.0085936  -0.0012099  -0.0023523  -0.0000674   0.0001074   0.0008090
   24   0.0070465  -0.0097855   0.0016399   0.0000427  -0.0000709   0.0002912
   25  -0.0353364  -0.0138269  -0.0104121  -0.0000120  -0.0004133  -0.0006714
   26   0.0078824   0.0074739   0.0078914  -0.0000002   0.0002159   0.0001374
   27   0.0110663   0.0075084   0.0073023   0.0000542  -0.0000084   0.0000495
           13          14          15          16          17          18
    1  -0.0068054  -0.0033110  -0.0099299   0.0215013   0.0048607  -0.0018954
    2  -0.0025850  -0.0008426  -0.0073780   0.0098544   0.0046491   0.0041942
    3   0.0037351   0.0057562   0.0036689  -0.0047683  -0.0053738   0.0083553
    4  -0.1253680  -0.0589364  -0.0387859  -0.3910245  -0.0611575   0.1601816
    5  -0.0441754   0.0002942  -0.0077793  -0.0591312  -0.0821696   0.0241646
    6   0.0301749   0.0304352   0.0710124   0.1417669   0.0114509  -0.1736176
    7   0.0309238   0.0213486   0.0346011  -0.0791329  -0.0380451   0.0381703
    8   0.0171955   0.0041329   0.0231667  -0.0513623   0.0132224   0.0099677
    9  -0.0164180  -0.0239396  -0.0359735   0.0665405   0.0347426   0.0015941
   10  -0.1840173   0.0072552   0.1802176   0.0473936  -0.0056700  -0.0466760
   11   0.0195322  -0.0549924  -0.1596156  -0.0262363  -0.0150817  -0.0458010
   12   0.2144340  -0.1502982  -0.6271716  -0.1114775  -0.0649091  -0.0793624
   13   0.4078059   0.0437845  -0.2310786  -0.1261024  -0.0325557   0.0002274
   14   0.0437845   0.0771153   0.1474510  -0.0134910  -0.0251558  -0.0094510
   15  -0.2310786   0.1474510   0.6399104   0.0594569   0.0051214  -0.0506461
   16  -0.1261024  -0.0134910   0.0594569   0.5390277   0.1366705  -0.1537300
   17  -0.0325557  -0.0251558   0.0051214   0.1366705   0.1044601   0.0190229
   18   0.0002274  -0.0094510  -0.0506461  -0.1537300   0.0190229   0.2953990
   19   0.0006126   0.0004123   0.0014985  -0.0035203  -0.0005968  -0.0004375
   20  -0.0000323   0.0001420   0.0001359   0.0009142   0.0000521  -0.0004399
   21  -0.0004807  -0.0002772  -0.0003482   0.0010902   0.0002777  -0.0004109
   22   0.0019852   0.0019609   0.0038711  -0.0067221  -0.0031928   0.0010301
   23  -0.0010338  -0.0003253  -0.0013633   0.0027258  -0.0000746  -0.0002677
   24  -0.0004552   0.0002820  -0.0005441   0.0013405   0.0001654  -0.0005776
   25   0.0009655   0.0009769   0.0001494  -0.0014204  -0.0003135   0.0031295
   26  -0.0001301  -0.0003685   0.0002611   0.0000559   0.0000980  -0.0013899
   27  -0.0001388   0.0000416   0.0000917  -0.0002192  -0.0004980  -0.0007339
           19          20          21          22          23          24
    1  -0.0480222  -0.0035917   0.0285326  -0.0540487   0.0399827  -0.0099921
    2  -0.0041449  -0.0589014   0.0470810   0.0354227  -0.3050958   0.0585964
    3   0.0207774   0.0491002  -0.3158657  -0.0088504   0.0570165  -0.0651444
    4   0.0001268   0.0000361  -0.0024275   0.0114209  -0.0035456  -0.0026213
    5   0.0003327   0.0006343  -0.0007122   0.0073889   0.0003736  -0.0022008
    6   0.0020105  -0.0002939   0.0003570  -0.0069314   0.0016169   0.0023748
    7  -0.0174763   0.0017981   0.0087547  -0.0263598   0.0085936   0.0070465
    8  -0.0017196   0.0008227  -0.0008973   0.0301232  -0.0012099  -0.0097855
    9   0.0377130  -0.0102476  -0.0033600   0.0017581  -0.0023523   0.0016399
   10   0.0003299   0.0000482  -0.0000194   0.0005014  -0.0000674   0.0000427
   11  -0.0001648   0.0000050   0.0001367  -0.0007286   0.0001074  -0.0000709
   12  -0.0011680   0.0000726   0.0003377  -0.0022934   0.0008090   0.0002912
   13   0.0006126  -0.0000323  -0.0004807   0.0019852  -0.0010338  -0.0004552
   14   0.0004123   0.0001420  -0.0002772   0.0019609  -0.0003253   0.0002820
   15   0.0014985   0.0001359  -0.0003482   0.0038711  -0.0013633  -0.0005441
   16  -0.0035203   0.0009142   0.0010902  -0.0067221   0.0027258   0.0013405
   17  -0.0005968   0.0000521   0.0002777  -0.0031928  -0.0000746   0.0001654
   18  -0.0004375  -0.0004399  -0.0004109   0.0010301  -0.0002677  -0.0005776
   19   0.0628279   0.0016582  -0.0358864   0.0011828  -0.0006773  -0.0046488
   20   0.0016582   0.0564031  -0.0494108  -0.0035710  -0.0028456   0.0306834
   21  -0.0358864  -0.0494108   0.3374295  -0.0007107   0.0001516  -0.0038204
   22   0.0011828  -0.0035710  -0.0007107   0.0667088  -0.0485251   0.0059668
   23  -0.0006773  -0.0028456   0.0001516  -0.0485251   0.3241986  -0.0609819
   24  -0.0046488   0.0306834  -0.0038204   0.0059668  -0.0609819   0.0613325
   25   0.0039389   0.0027402   0.0011472   0.0053313   0.0025471   0.0033209
   26   0.0049002   0.0036877   0.0036504  -0.0188784  -0.0151284  -0.0166881
   27  -0.0198587  -0.0195999  -0.0143191   0.0061599   0.0053712   0.0044480
           25          26          27
    1  -0.1494227  -0.1024832  -0.0928738
    2  -0.0985945  -0.1480069  -0.0848191
    3  -0.0867546  -0.0854719  -0.1225319
    4  -0.0004650   0.0014425   0.0021885
    5  -0.0003269   0.0007936   0.0003925
    6  -0.0035304  -0.0000019  -0.0001510
    7  -0.0353364   0.0078824   0.0110663
    8  -0.0138269   0.0074739   0.0075084
    9  -0.0104121   0.0078914   0.0073023
   10  -0.0000120  -0.0000002   0.0000542
   11  -0.0004133   0.0002159  -0.0000084
   12  -0.0006714   0.0001374   0.0000495
   13   0.0009655  -0.0001301  -0.0001388
   14   0.0009769  -0.0003685   0.0000416
   15   0.0001494   0.0002611   0.0000917
   16  -0.0014204   0.0000559  -0.0002192
   17  -0.0003135   0.0000980  -0.0004980
   18   0.0031295  -0.0013899  -0.0007339
   19   0.0039389   0.0049002  -0.0198587
   20   0.0027402   0.0036877  -0.0195999
   21   0.0011472   0.0036504  -0.0143191
   22   0.0053313  -0.0188784   0.0061599
   23   0.0025471  -0.0151284   0.0053712
   24   0.0033209  -0.0166881   0.0044480
   25   0.1764207   0.1072109   0.0936215
   26   0.1072109   0.1512348   0.0916116
   27   0.0936215   0.0916116   0.1258443
 Gradient time:  CPU 3232.81 s  wall 957.22 s
 **********************************************************************
 **                                                                  **
 **                       VIBRATIONAL ANALYSIS                       **
 **                       --------------------                       **
 **                                                                  **
 **        VIBRATIONAL FREQUENCIES (CM**-1) AND NORMAL MODES         **
 **     FORCE CONSTANTS (mDYN/ANGSTROM) AND REDUCED MASSES (AMU)     **
 **                  INFRARED INTENSITIES (KM/MOL)                   **
 **                                                                  **
 **********************************************************************
 

 Mode:                 1                      2                      3
 Frequency:        76.03                  99.91                 112.15
 Force Cnst:      0.0128                 0.0068                 0.0322
 Red. Mass:       3.7711                 1.1640                 4.3505
 IR Active:          YES                    YES                    YES
 IR Intens:        9.455                  5.062                 21.502
 Raman Active:       YES                    YES                    YES
               X      Y      Z        X      Y      Z        X      Y      Z
 C         -0.170 -0.114 -0.167    0.034  0.048  0.001    0.095  0.197 -0.109
 C         -0.008  0.021  0.137    0.004 -0.034 -0.002    0.021 -0.142  0.029
 N         -0.024  0.125  0.158    0.017 -0.056  0.021    0.077 -0.208  0.140
 O          0.210 -0.074 -0.020   -0.036  0.041 -0.015   -0.016 -0.159  0.058
 N          0.005  0.121 -0.126   -0.010 -0.004  0.006   -0.114  0.250 -0.065
 N         -0.024 -0.045  0.073   -0.006 -0.015 -0.006   -0.065  0.028 -0.037
 H         -0.486 -0.363 -0.251   -0.168 -0.448 -0.109   -0.036  0.588 -0.062
 H         -0.216 -0.088 -0.005    0.288  0.199  0.484    0.315  0.158 -0.487
 H          0.077 -0.070 -0.534   -0.012  0.463 -0.419    0.022  0.140  0.049
 TransDip  -0.082 -0.040 -0.036    0.063  0.034 -0.010    0.130  0.069 -0.022

 Mode:                 4                      5                      6
 Frequency:       156.46                 230.43                 487.22
 Force Cnst:      0.1412                 0.2095                 1.7241
 Red. Mass:       9.7897                 6.6958                12.3273
 IR Active:          YES                    YES                    YES
 IR Intens:       22.554                  7.422                 55.827
 Raman Active:       YES                    YES                    YES
               X      Y      Z        X      Y      Z        X      Y      Z
 C          0.055 -0.046  0.130    0.051 -0.055 -0.140    0.081  0.001 -0.061
 C          0.135 -0.049 -0.147   -0.012  0.171 -0.039    0.292  0.204  0.676
 N          0.136  0.430  0.092    0.223  0.033  0.373    0.001 -0.024 -0.210
 O         -0.332 -0.222  0.057   -0.166 -0.005 -0.053   -0.302 -0.155 -0.190
 N         -0.149  0.223 -0.034    0.032 -0.287  0.082   -0.096 -0.123 -0.259
 N          0.222 -0.284 -0.136   -0.100  0.180 -0.181    0.096  0.144  0.166
 H          0.079 -0.301  0.089   -0.320  0.085 -0.167    0.181 -0.004 -0.049
 H         -0.214 -0.053  0.337   -0.014 -0.118 -0.376    0.145  0.015 -0.038
 H          0.242 -0.115 -0.032    0.342 -0.240 -0.301    0.011  0.046 -0.016
 TransDip  -0.138 -0.063  0.005    0.070  0.035 -0.039   -0.203 -0.115 -0.055

 Mode:                 7                      8                      9
 Frequency:       628.54                 792.06                 842.11
 Force Cnst:      2.6714                 2.7876                 5.4750
 Red. Mass:      11.4767                 7.5416                13.1037
 IR Active:          YES                    YES                    YES
 IR Intens:       35.516                 89.683                 78.968
 Raman Active:       YES                    YES                    YES
               X      Y      Z        X      Y      Z        X      Y      Z
 C          0.150 -0.040 -0.031   -0.387  0.056  0.121   -0.058  0.005  0.030
 C         -0.271  0.732 -0.133    0.046  0.091  0.020   -0.150 -0.165 -0.426
 N          0.067 -0.241  0.015   -0.031 -0.203  0.066    0.055  0.012  0.134
 O          0.010 -0.062  0.003   -0.161 -0.089 -0.104   -0.132 -0.107 -0.192
 N         -0.065  0.088 -0.051    0.427  0.158  0.051    0.017 -0.071 -0.222
 N          0.059 -0.370  0.176    0.157 -0.001 -0.141    0.264  0.307  0.646
 H          0.136  0.005 -0.024   -0.409  0.117  0.127   -0.115  0.101  0.036
 H          0.263 -0.025 -0.043   -0.240  0.070  0.069    0.088  0.018 -0.025
 H          0.040  0.044  0.012   -0.432  0.116  0.113   -0.078  0.058 -0.003
 TransDip   0.097  0.150 -0.067    0.195  0.190  0.135   -0.167 -0.108 -0.204

 Mode:                10                     11                     12
 Frequency:       969.96                1146.85                1158.30
 Force Cnst:      5.0831                 1.0073                 1.0277
 Red. Mass:       9.1699                 1.2999                 1.3000
 IR Active:          YES                    YES                    YES
 IR Intens:      455.327                 16.342                  4.111
 Raman Active:       YES                    YES                    YES
               X      Y      Z        X      Y      Z        X      Y      Z
 C          0.369 -0.049 -0.116   -0.006 -0.140 -0.012   -0.046  0.011 -0.135
 C         -0.148 -0.084  0.044   -0.015  0.001  0.009    0.009 -0.001  0.002
 N         -0.171  0.140  0.001   -0.018  0.066  0.015    0.034 -0.003  0.062
 O         -0.145 -0.095 -0.152   -0.002  0.002  0.005    0.001  0.001 -0.001
 N          0.432  0.170  0.103    0.014  0.003  0.001   -0.006 -0.003  0.001
 N         -0.338 -0.058  0.139    0.007  0.000 -0.019   -0.007  0.000  0.001
 H          0.366 -0.194 -0.130   -0.006  0.352  0.070    0.677 -0.143 -0.061
 H          0.010 -0.075  0.023    0.712 -0.022 -0.104   -0.133  0.110  0.404
 H          0.367 -0.149 -0.019   -0.462  0.337  0.028   -0.410 -0.013  0.363
 TransDip   0.641  0.180  0.154   -0.118 -0.048  0.023    0.059  0.025 -0.011

 Mode:                13                     14                     15
 Frequency:      1385.34                1465.05                1500.61
 Force Cnst:      9.3231                 1.4739                 1.3787
 Red. Mass:       8.2452                 1.1655                 1.0392
 IR Active:          YES                    YES                    YES
 IR Intens:      239.987                 19.211                 11.789
 Raman Active:       YES                    YES                    YES
               X      Y      Z        X      Y      Z        X      Y      Z
 C          0.204  0.018 -0.080   -0.113  0.015  0.028   -0.013  0.000 -0.047
 C         -0.277 -0.036  0.106   -0.013 -0.003  0.003    0.005  0.001 -0.003
 N         -0.406 -0.037  0.177    0.002 -0.000 -0.003    0.002  0.000 -0.017
 O         -0.009  0.028  0.087   -0.003  0.001  0.005    0.000 -0.001 -0.001
 N          0.015 -0.031 -0.100    0.011  0.002 -0.004   -0.000  0.001  0.001
 N          0.416  0.098 -0.198   -0.009 -0.003  0.002   -0.006 -0.002  0.004
 H          0.187 -0.360 -0.141    0.595 -0.000  0.107   -0.358  0.292 -0.023
 H          0.187  0.012 -0.035    0.433  0.085 -0.093    0.302  0.186  0.572
 H          0.289 -0.302  0.169    0.460 -0.230 -0.390    0.218 -0.477  0.234
 TransDip  -0.429 -0.241 -0.065   -0.136 -0.011  0.032    0.031  0.005  0.105

 Mode:                16                     17                     18
 Frequency:      1509.36                1663.85                2316.78
 Force Cnst:      1.4342                23.3339                38.3126
 Red. Mass:       1.0685                14.3057                12.1149
 IR Active:          YES                    YES                    YES
 IR Intens:       11.607                187.701               1208.333
 Raman Active:       YES                    YES                    YES
               X      Y      Z        X      Y      Z        X      Y      Z
 C          0.027 -0.055 -0.009    0.013 -0.013 -0.002    0.047 -0.031 -0.007
 C         -0.012 -0.002  0.006    0.031  0.022  0.034    0.702  0.180 -0.307
 N         -0.020 -0.016  0.008   -0.112 -0.008  0.034   -0.497 -0.087  0.212
 O         -0.000  0.001  0.004    0.165 -0.153 -0.590   -0.005  0.013  0.042
 N         -0.001 -0.002 -0.005   -0.314  0.123  0.632   -0.036 -0.029 -0.051
 N          0.020  0.005 -0.009    0.178  0.056 -0.015   -0.125 -0.020  0.066
 H          0.165  0.628  0.120    0.108 -0.009  0.015    0.101 -0.031  0.045
 H         -0.422 -0.034  0.363    0.120  0.005 -0.028    0.146  0.002 -0.050
 H          0.107  0.240 -0.424    0.075 -0.038 -0.056    0.057 -0.063 -0.072
 TransDip   0.063  0.080 -0.039    0.273  0.183  0.291    1.043  0.272 -0.280

 Mode:                19                     20                     21
 Frequency:      3078.12                3162.53                3168.46
 Force Cnst:      5.7602                 6.5197                 6.5364
 Red. Mass:       1.0318                 1.1064                 1.1051
 IR Active:          YES                    YES                    YES
 IR Intens:       27.755                  6.041                  4.478
 Raman Active:       YES                    YES                    YES
               X      Y      Z        X      Y      Z        X      Y      Z
 C          0.042 -0.018 -0.006   -0.029 -0.089 -0.012   -0.017  0.019 -0.091
 C         -0.004 -0.001  0.002    0.001  0.001 -0.001   -0.001 -0.000  0.000
 N          0.003  0.000 -0.001   -0.001 -0.000  0.001    0.001  0.000  0.000
 O         -0.000  0.000  0.000   -0.000  0.000  0.000   -0.000  0.000  0.000
 N         -0.000 -0.000 -0.000   -0.000 -0.000 -0.000   -0.000 -0.000 -0.000
 N          0.001  0.000 -0.000   -0.000 -0.000  0.000    0.000  0.000 -0.000
 H         -0.059 -0.087  0.500    0.003 -0.006 -0.082   -0.103 -0.143  0.836
 H         -0.108  0.630 -0.138   -0.117  0.647 -0.150    0.050 -0.316  0.054
 H         -0.351 -0.326 -0.282    0.462  0.417  0.378    0.250  0.241  0.188
 TransDip   0.163 -0.031 -0.030   -0.008 -0.078 -0.006   -0.013  0.021 -0.063

 STANDARD THERMODYNAMIC QUANTITIES AT   298.15 K  AND     1.00 ATM

   This Molecule has  0 Imaginary Frequencies
   Zero point vibrational energy:       37.098 kcal/mol

   Atom    1 Element C  Has Mass   12.00000
   Atom    2 Element C  Has Mass   12.00000
   Atom    3 Element N  Has Mass   14.00307
   Atom    4 Element O  Has Mass   15.99491
   Atom    5 Element N  Has Mass   14.00307
   Atom    6 Element N  Has Mass   14.00307
   Atom    7 Element H  Has Mass    1.00783
   Atom    8 Element H  Has Mass    1.00783
   Atom    9 Element H  Has Mass    1.00783
   Molecular Mass:    85.027610 amu
   Principal axes and moments of inertia in amu*Bohr^2:
                             1           2           3
    Eigenvalues --      150.99488   891.07782  1015.26048
          X               0.96920    -0.04362    -0.24236
          Y               0.23960     0.39439     0.88716
          Z              -0.05689     0.91791    -0.39270
   Rotational Symmetry Number is   1
   The Molecule is an Asymmetric Top
   Translational Enthalpy:        0.889 kcal/mol
   Rotational Enthalpy:           0.889 kcal/mol
   Vibrational Enthalpy:         39.613 kcal/mol
   gas constant (RT):             0.592 kcal/mol
   Translational Entropy:        39.234  cal/mol.K
   Rotational Entropy:           26.415  cal/mol.K
   Vibrational Entropy:          16.897  cal/mol.K

   Total Enthalpy:               41.983 kcal/mol
   Total Entropy:                82.547  cal/mol.K
Archival summary:
1\1\nid00500\FREQ\ProcedureUnspecified\BasisUnspecified\1323\cgrambow\TueFeb1223:44:282019TueFeb1223:44:282019\0\\#,FREQ,ProcedureUnspecified,BasisUnspecified,\\0,1\N\C,1,1.25702\N,2,1.17613,1,173.014\N,1,1.40968,2,117.559,3,-130.119,0\O,4,1.18839,1,115.858,2,-4.07093,0\C,3,1.42979,2,147.045,1,-141.805,0\H,6,1.0887,3,109.017,2,-125.124,0\H,6,1.08912,3,108.955,2,116.562,0\H,6,1.09002,3,111.078,2,-4.29282,0\\\@

 Total job time:  961.44s(wall), 3293.60s(cpu) 
 Tue Feb 12 23:44:28 2019

        *************************************************************
        *                                                           *
        *  Thank you very much for using Q-Chem.  Have a nice day.  *
        *                                                           *
        *************************************************************


