
Running Job 1 of 3 ts_optfreq0084.in
qchem ts_optfreq0084.in_11375.0 /tmp/qchem11375/ 1
/global/common/cori/software/qchem/5.1/exe/qcprog.exe ts_optfreq0084.in_11375.0 /tmp/qchem11375/
Check license passed

                  Welcome to Q-Chem
     A Quantum Leap Into The Future Of Chemistry


 Q-Chem 5.1, Q-Chem, Inc., Pleasanton, CA (2018)

 Yihan Shao,  Zhengting Gan,  E. Epifanovsky,  A. T. B. Gilbert,  M. Wormit,  
 J. Kussmann,  A. W. Lange,  A. Behn,  Jia Deng,  Xintian Feng,  D. Ghosh,  
 M. Goldey,  P. R. Horn,  L. D. Jacobson,  I. Kaliman,  T. Kus,  A. Landau,  
 Jie Liu,  E. I. Proynov,  R. M. Richard,  R. P. Steele,  E. J. Sundstrom,  
 H. L. Woodcock III,  P. M. Zimmerman,  D. Zuev,  B. Albrecht,  E. Alguire,  
 S. A. Baeppler,  D. Barton,  Z. Benda,  Y. A. Bernard,  E. J. Berquist,  
 K. B. Bravaya,  H. Burton,  D. Casanova,  Chun-Min Chang,  Yunqing Chen,  
 A. Chien,  K. D. Closser,  M. P. Coons,  S. Coriani,  S. Dasgupta,  
 A. L. Dempwolff,  M. Diedenhofen,  Hainam Do,  R. G. Edgar,  Po-Tung Fang,  
 S. Faraji,  S. Fatehi,  Qingguo Feng,  K. D. Fenk,  J. Fosso-Tande,  
 Qinghui Ge,  A. Ghysels,  G. Gidofalvi,  J. Gomes,  J. Gonthier,  A. Gunina,  
 D. Hait,  M. W. D. Hanson-Heine,  P. H. P. Harbach,  A. W. Hauser,  
 J. E. Herr,  E. G. Hohenstein,  Z. C. Holden,  Kerwin Hui,  B. C. Huynh,  
 T.-C. Jagau,  Hyunjun Ji,  B. Kaduk,  K. Khistyaev,  Jaehoon Kim,  
 P. Klunzinger,  K. Koh,  D. Kosenkov,  L. Koulias,  T. Kowalczyk,  
 C. M. Krauter,  A. Kunitsa,  Ka Un Lao,  A. Laurent,  K. V. Lawler,  
 Joonho Lee,  D. Lefrancois,  S. Lehtola,  D. S. Levine,  Yi-Pei Li,  
 You-Sheng Lin,  Fenglai Liu,  E. Livshits,  A. Luenser,  P. Manohar,  
 E. Mansoor,  S. F. Manzer,  Shan-Ping Mao,  Yuezhi Mao,  N. Mardirossian,  
 A. V. Marenich,  T. Markovich,  L. A. Martinez-Martinez,  S. A. Maurer,  
 N. J. Mayhall,  S. C. McKenzie,  J.-M. Mewes,  A. F. Morrison,  
 J. W. Mullinax,  K. Nanda,  T. S. Nguyen-Beck,  R. Olivares-Amaya,  
 J. A. Parkhill,  T. M. Perrine,  F. Plasser,  P. Pokhilko,  S. Prager,  
 A. Prociuk,  E. Ramos,  D. R. Rehn,  F. Rob,  M. Schneider,  N. Sergueev,  
 S. M. Sharada,  S. Sharma,  D. W. Small,  T. Stauch,  T. Stein,  
 Yu-Chuan Su,  A. J. W. Thom,  A. Tkatchenko,  T. Tsuchimochi,  N. M. Tubman,  
 L. Vogt,  M. L. Vidal,  O. Vydrov,  M. A. Watson,  J. Wenzel,  
 M. de Wergifosse,  T. A. Wesolowski,  A. White,  J. Witte,  A. Yamada,  
 Jun Yang,  K. Yao,  S. Yeganeh,  S. R. Yost,  Zhi-Qiang You,  A. Zech,  
 Igor Ying Zhang,  Xing Zhang,  Yan Zhao,  Ying Zhu,  B. R. Brooks,  
 G. K. L. Chan,  C. J. Cramer,  M. S. Gordon,  W. J. Hehre,  A. Klamt,  
 M. W. Schmidt,  C. D. Sherrill,  D. G. Truhlar,  A. Aspuru-Guzik,  R. Baer,  
 A. T. Bell,  N. A. Besley,  Jeng-Da Chai,  R. A. DiStasio Jr.,  A. Dreuw,  
 B. D. Dunietz,  T. R. Furlani,  Chao-Ping Hsu,  Yousung Jung,  Jing Kong,  
 D. S. Lambrecht,  WanZhen Liang,  C. Ochsenfeld,  V. A. Rassolov,  
 L. V. Slipchenko,  J. E. Subotnik,  T. Van Voorhis,  J. M. Herbert,  
 A. I. Krylov,  P. M. W. Gill,  M. Head-Gordon

 Contributors to earlier versions of Q-Chem not listed above: 
 R. D. Adamson,  B. Austin,  J. Baker,  G. J. O. Beran,  K. Brandhorst,  
 S. T. Brown,  E. F. C. Byrd,  A. K. Chakraborty,  C.-L. Cheng,  
 Siu Hung Chien,  D. M. Chipman,  D. L. Crittenden,  H. Dachsel,  
 R. J. Doerksen,  A. D. Dutoi,  L. Fusti-Molnar,  W. A. Goddard III,  
 A. Golubeva-Zadorozhnaya,  S. R. Gwaltney,  G. Hawkins,  A. Heyden,  
 S. Hirata,  G. Kedziora,  F. J. Keil,  C. Kelley,  Jihan Kim,  R. A. King,  
 R. Z. Khaliullin,  P. P. Korambath,  W. Kurlancheek,  A. M. Lee,  M. S. Lee,  
 S. V. Levchenko,  Ching Yeh Lin,  D. Liotard,  R. C. Lochan,  I. Lotan,  
 P. E. Maslen,  N. Nair,  D. P. O'Neill,  D. Neuhauser,  E. Neuscamman,  
 C. M. Oana,  R. Olson,  B. Peters,  R. Peverati,  P. A. Pieniazek,  
 Y. M. Rhee,  J. Ritchie,  M. A. Rohrdanz,  E. Rosta,  N. J. Russ,  
 H. F. Schaefer III,  N. E. Schultz,  N. Shenvi,  A. C. Simmonett,  A. Sodt,  
 D. Stuck,  K. S. Thanthiriwatte,  V. Vanovschi,  Tao Wang,  A. Warshel,  
 C. F. Williams,  Q. Wu,  X. Xu,  W. Zhang

 Please cite Q-Chem as follows:
 Y. Shao et al., Mol. Phys. 113, 184-215 (2015)
 DOI: 10.1080/00268976.2014.952696

 Q-Chem 5.1.0 for Intel X86 EM64T Linux

 Parts of Q-Chem use Armadillo 8.300.2 (Tropical Shenanigans).
 http://arma.sourceforge.net/

 Q-Chem begins on Tue Feb 12 23:30:26 2019  

Host: cori07
0

     Scratch files written to /tmp/qchem11375//
 Jun2518 |scratch|qcdevops|jenkins|workspace|build_RNUM -1
Processing $rem in /global/common/cori/software/qchem/5.1/config/preferences.
 MEM_TOTAL  96000 

Checking the input file for inconsistencies... 	...done.

--------------------------------------------------------------
User input:
--------------------------------------------------------------
$molecule
0 1
C  -1.4283721416  -0.0699302768   0.0876017259
C   0.3473488260  -0.0089856387   0.0184527490
N   0.0800389254  -0.9742779031   0.7408667455
O   2.7417193295  -0.3656464734   0.1802190412
N   2.4326503856   0.5836860426  -0.5049191596
N   1.0255521224   0.8700698097  -0.6549303062
H  -1.6001808996   0.9146466790   0.5291783520
H  -1.5944017202  -0.1188271356  -0.9923575170
H  -2.0221998276  -0.8319421038   0.5972923692
$end

$rem
JOBTYPE                   FREQ
METHOD                    wB97X-D3
BASIS                     def2-TZVP
UNRESTRICTED              TRUE
SCF_ALGORITHM             DIIS
MAX_SCF_CYCLES            100
SCF_CONVERGENCE           8
SYM_IGNORE                TRUE
SYMMETRY                  FALSE
WAVEFUNCTION_ANALYSIS     FALSE
$end

--------------------------------------------------------------
 Adding empirical dispersion correction 
 ----------------------------------------------------------------
 Doing -D3(0) with
 s6  =   1.00000
 s8  =   1.00000
 rs6 =   1.28100
 rs8 =   1.09400
 -D3 energy without 3body term =     -0.0012559424 hartrees
 ----------------------------------------------------------------
             Standard Nuclear Orientation (Angstroms)
    I     Atom           X                Y                Z
 ----------------------------------------------------------------
    1      C      -1.4283721416    -0.0699302768     0.0876017259
    2      C       0.3473488260    -0.0089856387     0.0184527490
    3      N       0.0800389254    -0.9742779031     0.7408667455
    4      O       2.7417193295    -0.3656464734     0.1802190412
    5      N       2.4326503856     0.5836860426    -0.5049191596
    6      N       1.0255521224     0.8700698097    -0.6549303062
    7      H      -1.6001808996     0.9146466790     0.5291783520
    8      H      -1.5944017202    -0.1188271356    -0.9923575170
    9      H      -2.0221998276    -0.8319421038     0.5972923692
 ----------------------------------------------------------------
 Nuclear Repulsion Energy =   210.0949689175 hartrees
 There are       22 alpha and       22 beta electrons
 Requested basis set is def2-TZVP
 There are 78 shells and 204 basis functions

 Total QAlloc Memory Limit  96000 MB
 Mega-Array Size       188 MB
 MEM_STATIC part       192 MB

                       Distance Matrix (Angstroms)
             C (  1)   C (  2)   N (  3)   O (  4)   N (  5)   N (  6)
   C (  2)  1.778112
   N (  3)  1.876141  1.234960
   O (  4)  4.181589  2.426187  2.787347
   N (  5)  3.960529  2.230171  3.084480  1.210855
   N (  6)  2.730696  1.298516  2.498772  2.273697  1.443761
   H (  7)  1.092657  2.215132  2.536925  4.540156  4.176436  2.880725
   H (  8)  1.093741  2.191848  2.557267  4.498644  4.116828  2.820626
   H (  9)  1.092281  2.574310  2.111938  4.804821  4.802558  3.708598
             H (  7)   H (  8)
   H (  8)  1.839340
   H (  9)  1.798141  1.794026
 
 A cutoff of  1.0D-11 yielded   2839 shell pairs
 There are     19865 function pairs (     26232 Cartesian)
 
 -------------------------------------------------------
 OpenMP Integral Computing Module                       
 Release: version 1.0, May 2013, Q-Chem Inc. Pittsburgh 
 -------------------------------------------------------
 Integral Job Info:
 Integral job number is                      11
 Integral operator is                         1
 short-range coefficients              19572800
 long-range coefficients              100000000
 Omega coefficients                         250
 if combine SR and LR in K                    1
 Integral screening is                        0
 Integral computing path is                   2
 max size of driver memory is            800000
 size of driver memory is                776718
 size of scratch memory is              4473992
 max col of scratch BK array              10000
 max len of scratch array in speh3          662
 max len of scratch index in speh4           32
 max int batch size is                      520
 min int batch size is                       52
 fixed nKL is                                52
 max L of basis functions is                  3
 order of int derivative is                   0
 number of shells is                         78
 number of basis is                         234
 number of cartesian basis is               234
 number of contracted shell pairs          2839
 number of primitive shell pairs           6855
 maxK2 (contraction) of shell pair           36
 max number of K2 of shell pair               1
 max number of CS2 of shell pair            361
 max number of PS2 of shell pair            852
 mem total for path MDJ                  583424
 -------------------------------------------------------
 Smallest overlap matrix eigenvalue = 2.10E-04
 Guess from superposition of atomic densities
 Warning:  Energy on first SCF cycle will be non-variational
 SAD guess density has 44.000000 electrons

 -----------------------------------------------------------------------
  General SCF calculation program by
  Eric Jon Sundstrom, Paul Horn, Yuezhi Mao, Dmitri Zuev, Alec White,
  David Stuck, Shaama M.S., Shane Yost, Joonho Lee, David Small,
  Daniel Levine, Susi Lehtola, Hugh Burton, Evgeny Epifanovsky
 -----------------------------------------------------------------------
 Exchange:     0.1957 Hartree-Fock + 1.0000 wB97X-D3 + LR-HF
 Correlation:  1.0000 wB97X-D3
 Using SG-2 standard quadrature grid
 Dispersion:   Grimme D3
 using 16 threads for integral computing
 -------------------------------------------------------
 OpenMP Integral computing Module                
 Release: version 1.0, May 2013, Q-Chem Inc. Pittsburgh 
 -------------------------------------------------------
 using 16 threads for integral computing
 -------------------------------------------------------
 OpenMP Integral computing Module                
 Release: version 1.0, May 2013, Q-Chem Inc. Pittsburgh 
 -------------------------------------------------------
 -------------------------------------------------------
 OpenMP BLAS3 based DFT computing Module                
 Release: version 1.0, May 2013, Q-Chem Inc. Pittsburgh 
 -------------------------------------------------------
 A unrestricted SCF calculation will be
 performed using DIIS
 SCF converges when DIIS error is below 1.0e-08
 ---------------------------------------
  Cycle       Energy         DIIS error
 ---------------------------------------
    1    -318.3410732411      1.84e-02  
    2    -317.1910064083      2.56e-03  
    3    -317.1111872149      3.68e-03  
    4    -317.2978373603      5.46e-04  
    5    -317.3017320687      2.59e-04  
    6    -317.3028793398      4.44e-05  
    7    -317.3029752116      2.67e-05  
    8    -317.3030065119      1.16e-05  
    9    -317.3030215125      5.33e-06  
   10    -317.3030236935      3.01e-06  
   11    -317.3030241171      5.92e-07  
   12    -317.3030241372      1.73e-07  
   13    -317.3030241389      5.38e-08  
   14    -317.3030241390      2.21e-08  
   15    -317.3030241391      4.81e-09  Convergence criterion met
 ---------------------------------------
 SCF time:   CPU 458.75s  wall 33.00s 
<S^2> =         -0.000000000
 SCF   energy in the final basis set =     -317.3030241391
 Total energy in the final basis set =     -317.3030241391
 No wavefunction analysis requested
 Calculating MO derivatives via CPSCF
 D1JvT checksum  = 856764 40876.8482152379
 D1KAT checksum  = 1798200 3692.0300093235
 D1JvT checksum  = 856764 26078.1148517730
 D1KAT checksum  = 1798200 1587.0167996876
   1         3          27      0.203510    0.032353
   2         3          27      0.049311    0.008734
   3         3          27      0.009048    0.001705
   4         3          27      0.001965    0.000432
   5         3          27      0.000288    0.000063
   6        17          13      0.000032    0.000008
   7        30           0      0.000000    0.000000    Roots Converged
 Time for AOints: 171.3 s (CPU) 11.6 s (wall)
 ------------------------------------------------------------------------------
                     AOints        : Timing summary (seconds)
 ------------------------------------------------------------------------------
     job step          cpu (% of tot)      sys (% of tot)     wall (% of tot)
 ------------------------------------------------------------------------------
  cpscf_lag         0.1133E+04 (39.5)   0.2636E-02 (54.7)   0.2212E+03 (32.5)
  iterzp            0.1563E+04 (54.5)   0.1783E-02 (37.0)   0.4477E+03 (65.8)
  make_fx           0.0000E+00 ( 0.0)   0.0000E+00 ( 0.0)   0.0000E+00 ( 0.0)
  AOints            0.1713E+03 ( 6.0)   0.3920E-03 ( 8.1)   0.1156E+02 ( 1.7)
 ------------------------------------------------------------------------------
   Grand Totals     0.2867E+04          0.4816E-02          0.6807E+03
 ------------------------------------------------------------------------------
 Calculating analytic Hessian of the SCF energy
 Polarizability Matrix (a.u.)
            1           2           3
    1 -77.0779506  -3.2256217   3.7613956
    2  -3.2256217 -43.5938186   8.8569152
    3   3.7613956   8.8569152 -38.4461091
 Running MAKENN_D3_FD2ND
 
 Direct stationary perturbation theory relativistic correction:
 
 rels  =       0.099929121309
 relv  =      -0.441537312405
 rel2e =       0.000000000000
 E_rel =      -0.341608191096
 
 Hessian of the SCF Energy
            1           2           3           4           5           6
    1   0.2601586   0.0584245  -0.0430670  -0.0073519  -0.0244959   0.0181925
    2   0.0584245   0.5279943   0.0407985   0.0622739  -0.0158895   0.0011499
    3  -0.0430670   0.0407985   0.5503412  -0.0431922   0.0020743  -0.0107073
    4  -0.0073519   0.0622739  -0.0431922   0.2851769   0.2232023  -0.1706799
    5  -0.0244959  -0.0158895   0.0020743   0.2232023   0.6635815  -0.3905973
    6   0.0181925   0.0011499  -0.0107073  -0.1706799  -0.3905973   0.4414239
    7  -0.0320872  -0.0178711   0.0147815  -0.0213240  -0.1052465   0.0770765
    8   0.0377351   0.0052170  -0.0229358  -0.1714460  -0.4419832   0.2888761
    9  -0.0265656  -0.0221598  -0.0108383   0.1256097   0.2876724  -0.2747257
   10   0.0011191   0.0035141  -0.0023674   0.0002695   0.0256449  -0.0195086
   11   0.0015413   0.0059063  -0.0022606  -0.0098103  -0.0387036   0.0194759
   12  -0.0013003  -0.0030110   0.0039722   0.0067541   0.0184381  -0.0257551
   13   0.0030377   0.0094447  -0.0067139  -0.1171447  -0.0986933   0.0780211
   14  -0.0014250  -0.0072806   0.0036682  -0.0317246   0.0447672  -0.0124975
   15   0.0005597   0.0039622  -0.0035976   0.0295188  -0.0102947   0.0312841
   16  -0.0201035  -0.0357305   0.0253391  -0.1091840  -0.0485723   0.0371261
   17  -0.0043088  -0.0081220   0.0082365  -0.0658935  -0.2098733   0.0965191
   18   0.0038999   0.0094081  -0.0041285   0.0489644   0.0958929  -0.1551603
   19  -0.0423224   0.0391049   0.0166964  -0.0209045   0.0221340   0.0011134
   20   0.0372622  -0.2761569  -0.1041276   0.0015068  -0.0010588  -0.0003822
   21   0.0129927  -0.1036788  -0.1016156  -0.0001906   0.0003621  -0.0002911
   22  -0.0417047   0.0002687  -0.0418985  -0.0227779   0.0068222  -0.0212565
   23   0.0031739  -0.0534279  -0.0157258   0.0004441   0.0002875   0.0007314
   24  -0.0373195  -0.0165710  -0.3203566  -0.0020656  -0.0001107  -0.0014143
   25  -0.1207458  -0.1194292   0.0804221   0.0132407  -0.0007953  -0.0000848
   26  -0.1079073  -0.1782406   0.0902723  -0.0085527  -0.0011277  -0.0032754
   27   0.0726078   0.0901018  -0.1030696   0.0052813  -0.0034372  -0.0046543
            7           8           9          10          11          12
    1  -0.0320872   0.0377351  -0.0265656   0.0011191   0.0015413  -0.0013003
    2  -0.0178711   0.0052170  -0.0221598   0.0035141   0.0059063  -0.0030110
    3   0.0147815  -0.0229358  -0.0108383  -0.0023674  -0.0022606   0.0039722
    4  -0.0213240  -0.1714460   0.1256097   0.0002695  -0.0098103   0.0067541
    5  -0.1052465  -0.4419832   0.2876724   0.0256449  -0.0387036   0.0184381
    6   0.0770765   0.2888761  -0.2747257  -0.0195086   0.0194759  -0.0257551
    7   0.0802450   0.1494406  -0.1111631   0.0020789   0.0058176  -0.0044897
    8   0.1494406   0.4696320  -0.3158806  -0.0025562   0.0117367  -0.0085772
    9  -0.1111631  -0.3158806   0.2872856   0.0016981  -0.0088719   0.0063139
   10   0.0020789  -0.0025562   0.0016981   0.1776282  -0.1388575   0.0956730
   11   0.0058176   0.0117367  -0.0088719  -0.1388575   0.4194827  -0.2832062
   12  -0.0044897  -0.0085772   0.0063139   0.0956730  -0.2832062   0.2308754
   13   0.0298879   0.0290849  -0.0225520  -0.1340554   0.0373124  -0.0225989
   14   0.0009715  -0.0176651   0.0087835   0.0644938  -0.3970345   0.2678535
   15  -0.0020280   0.0080455  -0.0111884  -0.0427085   0.2690132  -0.2257866
   16  -0.0297840  -0.0350187   0.0273513  -0.0463432   0.1045414  -0.0744603
   17  -0.0423865  -0.0256129   0.0417654   0.0478622  -0.0005161   0.0078563
   18   0.0334171   0.0414295  -0.0025746  -0.0329407   0.0055429   0.0106838
   19  -0.0011852  -0.0005691   0.0102461  -0.0008429  -0.0010600   0.0002245
   20  -0.0007672  -0.0000204   0.0006584  -0.0001898   0.0002589   0.0000849
   21   0.0018596   0.0042047   0.0038185  -0.0005936   0.0005651  -0.0007307
   22   0.0001396  -0.0103483  -0.0018725  -0.0007923  -0.0004341   0.0009489
   23  -0.0027885   0.0013370   0.0044830   0.0004563  -0.0008368   0.0002381
   24  -0.0001121   0.0014089   0.0019890   0.0004586  -0.0004068   0.0004475
   25  -0.0279709   0.0036775  -0.0027518   0.0009382   0.0009492  -0.0007513
   26   0.0128300  -0.0026413   0.0035496  -0.0003678  -0.0002936   0.0003235
   27  -0.0093419   0.0034289  -0.0000801   0.0002891   0.0001484  -0.0000203
           13          14          15          16          17          18
    1   0.0030377  -0.0014250   0.0005597  -0.0201035  -0.0043088   0.0038999
    2   0.0094447  -0.0072806   0.0039622  -0.0357305  -0.0081220   0.0094081
    3  -0.0067139   0.0036682  -0.0035976   0.0253391   0.0082365  -0.0041285
    4  -0.1171447  -0.0317246   0.0295188  -0.1091840  -0.0658935   0.0489644
    5  -0.0986933   0.0447672  -0.0102947  -0.0485723  -0.2098733   0.0958929
    6   0.0780211  -0.0124975   0.0312841   0.0371261   0.0965191  -0.1551603
    7   0.0298879   0.0009715  -0.0020280  -0.0297840  -0.0423865   0.0334171
    8   0.0290849  -0.0176651   0.0080455  -0.0350187  -0.0256129   0.0414295
    9  -0.0225520   0.0087835  -0.0111884   0.0273513   0.0417654  -0.0025746
   10  -0.1340554   0.0644938  -0.0427085  -0.0463432   0.0478622  -0.0329407
   11   0.0373124  -0.3970345   0.2690132   0.1045414  -0.0005161   0.0055429
   12  -0.0225989   0.2678535  -0.2257866  -0.0744603   0.0078563   0.0106838
   13   0.2743208   0.0272601  -0.0303836  -0.0535008  -0.0041603   0.0042736
   14   0.0272601   0.4447990  -0.2955060  -0.0588619  -0.0692730   0.0279923
   15  -0.0303836  -0.2955060   0.2641028   0.0444656   0.0255544  -0.0557928
   16  -0.0535008  -0.0588619   0.0444656   0.2554439   0.0702549  -0.0585574
   17  -0.0041603  -0.0692730   0.0255544   0.0702549   0.3114638  -0.1785189
   18   0.0042736   0.0279923  -0.0557928  -0.0585574  -0.1785189   0.2059643
   19  -0.0018821   0.0003791  -0.0001058   0.0048618  -0.0002322  -0.0016561
   20   0.0003743  -0.0002139  -0.0000372  -0.0005126   0.0003104  -0.0002891
   21   0.0004556  -0.0008991   0.0009521  -0.0004434   0.0000394  -0.0004541
   22  -0.0020088   0.0000923  -0.0000355   0.0052405   0.0016352   0.0002621
   23  -0.0002226   0.0011276  -0.0005517   0.0001124  -0.0004220  -0.0001328
   24  -0.0006535   0.0006152  -0.0004589   0.0012108  -0.0004595   0.0001382
   25   0.0013453  -0.0011853   0.0007173  -0.0066307  -0.0027710   0.0023371
   26  -0.0004001   0.0007734  -0.0001855   0.0037873   0.0020452  -0.0013250
   27   0.0001516  -0.0000099   0.0004853  -0.0020317  -0.0009926   0.0013241
           19          20          21          22          23          24
    1  -0.0423224   0.0372622   0.0129927  -0.0417047   0.0031739  -0.0373195
    2   0.0391049  -0.2761569  -0.1036788   0.0002687  -0.0534279  -0.0165710
    3   0.0166964  -0.1041276  -0.1016156  -0.0418985  -0.0157258  -0.3203566
    4  -0.0209045   0.0015068  -0.0001906  -0.0227779   0.0004441  -0.0020656
    5   0.0221340  -0.0010588   0.0003621   0.0068222   0.0002875  -0.0001107
    6   0.0011134  -0.0003822  -0.0002911  -0.0212565   0.0007314  -0.0014143
    7  -0.0011852  -0.0007672   0.0018596   0.0001396  -0.0027885  -0.0001121
    8  -0.0005691  -0.0000204   0.0042047  -0.0103483   0.0013370   0.0014089
    9   0.0102461   0.0006584   0.0038185  -0.0018725   0.0044830   0.0019890
   10  -0.0008429  -0.0001898  -0.0005936  -0.0007923   0.0004563   0.0004586
   11  -0.0010600   0.0002589   0.0005651  -0.0004341  -0.0008368  -0.0004068
   12   0.0002245   0.0000849  -0.0007307   0.0009489   0.0002381   0.0004475
   13  -0.0018821   0.0003743   0.0004556  -0.0020088  -0.0002226  -0.0006535
   14   0.0003791  -0.0002139  -0.0008991   0.0000923   0.0011276   0.0006152
   15  -0.0001058  -0.0000372   0.0009521  -0.0000355  -0.0005517  -0.0004589
   16   0.0048618  -0.0005126  -0.0004434   0.0052405   0.0001124   0.0012108
   17  -0.0002322   0.0003104   0.0000394   0.0016352  -0.0004220  -0.0004595
   18  -0.0016561  -0.0002891  -0.0004541   0.0002621  -0.0001328   0.0001382
   19   0.0548485  -0.0390403  -0.0173868   0.0020923  -0.0056123  -0.0003012
   20  -0.0390403   0.2892166   0.1108773  -0.0018511   0.0033391   0.0025578
   21  -0.0173868   0.1108773   0.0974865   0.0055623  -0.0250094  -0.0055626
   22   0.0020923  -0.0018511   0.0055623   0.0546682   0.0013480   0.0408091
   23  -0.0056123   0.0033391  -0.0250094   0.0013480   0.0467501   0.0151622
   24  -0.0003012   0.0025578  -0.0055626   0.0408091   0.0151622   0.3365568
   25   0.0053344   0.0032176  -0.0022557   0.0051432   0.0030887  -0.0020266
   26  -0.0151041  -0.0156749   0.0135387   0.0024670   0.0018454  -0.0021960
   27  -0.0088306  -0.0093424   0.0063971   0.0174807   0.0208050  -0.0113390
           25          26          27
    1  -0.1207458  -0.1079073   0.0726078
    2  -0.1194292  -0.1782406   0.0901018
    3   0.0804221   0.0902723  -0.1030696
    4   0.0132407  -0.0085527   0.0052813
    5  -0.0007953  -0.0011277  -0.0034372
    6  -0.0000848  -0.0032754  -0.0046543
    7  -0.0279709   0.0128300  -0.0093419
    8   0.0036775  -0.0026413   0.0034289
    9  -0.0027518   0.0035496  -0.0000801
   10   0.0009382  -0.0003678   0.0002891
   11   0.0009492  -0.0002936   0.0001484
   12  -0.0007513   0.0003235  -0.0000203
   13   0.0013453  -0.0004001   0.0001516
   14  -0.0011853   0.0007734  -0.0000099
   15   0.0007173  -0.0001855   0.0004853
   16  -0.0066307   0.0037873  -0.0020317
   17  -0.0027710   0.0020452  -0.0009926
   18   0.0023371  -0.0013250   0.0013241
   19   0.0053344  -0.0151041  -0.0088306
   20   0.0032176  -0.0156749  -0.0093424
   21  -0.0022557   0.0135387   0.0063971
   22   0.0051432   0.0024670   0.0174807
   23   0.0030887   0.0018454   0.0208050
   24  -0.0020266  -0.0021960  -0.0113390
   25   0.1293456   0.1132477  -0.0756062
   26   0.1132477   0.1933140  -0.1007021
   27  -0.0756062  -0.1007021   0.1109568
 Gradient time:  CPU 3875.15 s  wall 1110.75 s
 **********************************************************************
 **                                                                  **
 **                       VIBRATIONAL ANALYSIS                       **
 **                       --------------------                       **
 **                                                                  **
 **        VIBRATIONAL FREQUENCIES (CM**-1) AND NORMAL MODES         **
 **     FORCE CONSTANTS (mDYN/ANGSTROM) AND REDUCED MASSES (AMU)     **
 **                  INFRARED INTENSITIES (KM/MOL)                   **
 **                                                                  **
 **********************************************************************
 

 Mode:                 1                      2                      3
 Frequency:      -361.11                 154.26                 214.44
 Force Cnst:      0.5903                 0.0688                 0.1705
 Red. Mass:       7.6835                 4.9055                 6.2932
 IR Active:          YES                    YES                    YES
 IR Intens:       17.668                  3.081                  2.465
 Raman Active:       YES                    YES                    YES
               X      Y      Z        X      Y      Z        X      Y      Z
 C          0.189  0.268 -0.197    0.001  0.181  0.245    0.016  0.231 -0.175
 C         -0.281 -0.009  0.008   -0.005 -0.151 -0.201   -0.023 -0.211  0.154
 N          0.456 -0.182  0.116   -0.010 -0.135 -0.182   -0.208 -0.179  0.134
 O         -0.146 -0.040  0.038    0.012  0.128  0.171    0.246  0.149 -0.123
 N         -0.188 -0.028  0.031    0.006  0.054  0.071   -0.031  0.107 -0.071
 N         -0.058  0.003 -0.006   -0.006 -0.142 -0.190   -0.049 -0.179  0.140
 H         -0.026  0.205 -0.140    0.264  0.122  0.472    0.225  0.333 -0.318
 H         -0.070  0.160 -0.152   -0.242  0.419  0.269    0.156  0.124 -0.189
 H          0.579  0.067 -0.022   -0.015  0.167  0.205   -0.201  0.438 -0.121
 TransDip  -0.113 -0.055  0.047    0.001  0.035  0.044   -0.037  0.030 -0.016

 Mode:                 4                      5                      6
 Frequency:       254.23                 347.05                 429.04
 Force Cnst:      0.0411                 0.9975                 0.6043
 Red. Mass:       1.0792                14.0563                 5.5716
 IR Active:          YES                    YES                    YES
 IR Intens:        1.392                  1.062                  1.745
 Raman Active:       YES                    YES                    YES
               X      Y      Z        X      Y      Z        X      Y      Z
 C          0.001 -0.009  0.011   -0.003 -0.006 -0.002    0.394 -0.029  0.015
 C          0.002  0.001 -0.018   -0.012 -0.169 -0.233    0.250 -0.101  0.062
 N          0.004 -0.022 -0.048    0.009  0.212  0.285   -0.144  0.003  0.002
 O         -0.010 -0.012 -0.003   -0.013 -0.262 -0.356   -0.305  0.010  0.004
 N          0.004  0.014  0.028    0.028  0.417  0.567   -0.135  0.074 -0.047
 N          0.002  0.025  0.017   -0.008 -0.173 -0.236   -0.001  0.007 -0.012
 H          0.179  0.229 -0.438   -0.043 -0.008 -0.025    0.518  0.017 -0.035
 H         -0.192 -0.526  0.069    0.023 -0.025 -0.011    0.550  0.030 -0.014
 H          0.001  0.340  0.533    0.008 -0.062 -0.073   -0.010  0.179 -0.146
 TransDip   0.011  0.016  0.032   -0.002 -0.020 -0.026    0.003  0.034 -0.025

 Mode:                 7                      8                      9
 Frequency:       568.45                 687.62                 708.30
 Force Cnst:      1.6836                 2.9501                 1.5049
 Red. Mass:       8.8432                10.5898                 5.0912
 IR Active:          YES                    YES                    YES
 IR Intens:       74.294                  9.643                289.794
 Raman Active:       YES                    YES                    YES
               X      Y      Z        X      Y      Z        X      Y      Z
 C          0.494 -0.083  0.060   -0.010  0.012  0.008    0.078 -0.033  0.030
 C         -0.380  0.160 -0.098    0.030  0.423  0.579   -0.193  0.056 -0.018
 N         -0.226  0.071 -0.053    0.002 -0.171 -0.224   -0.116  0.039 -0.036
 O          0.246 -0.026  0.008   -0.004 -0.036 -0.048   -0.009  0.035 -0.027
 N          0.071 -0.124  0.088    0.014  0.097  0.137   -0.187  0.091 -0.056
 N         -0.275  0.047 -0.029   -0.028 -0.254 -0.353    0.425 -0.145  0.082
 H          0.103 -0.162  0.107   -0.275  0.028 -0.105   -0.344 -0.155  0.144
 H          0.131 -0.153  0.107    0.293 -0.095 -0.022   -0.334 -0.204  0.098
 H          0.477 -0.104  0.034   -0.021  0.019  0.005    0.495 -0.270  0.186
 TransDip   0.264 -0.070  0.040    0.017  0.061  0.076   -0.539 -0.056  0.063

 Mode:                10                     11                     12
 Frequency:       855.64                1001.41                1012.03
 Force Cnst:      2.9237                 0.7116                 1.1591
 Red. Mass:       6.7779                 1.2044                 1.9209
 IR Active:          YES                    YES                    YES
 IR Intens:      154.326                  2.761                 19.186
 Raman Active:       YES                    YES                    YES
               X      Y      Z        X      Y      Z        X      Y      Z
 C          0.023  0.034 -0.019    0.002 -0.073 -0.092   -0.007  0.068 -0.063
 C         -0.141 -0.023  0.021   -0.010  0.035  0.038    0.139 -0.061  0.047
 N         -0.096 -0.153  0.114    0.003  0.018  0.019   -0.082 -0.038  0.033
 O         -0.272  0.072 -0.041   -0.005  0.002 -0.004    0.051 -0.034  0.022
 N          0.513  0.106 -0.102    0.006  0.004  0.003   -0.060 -0.015  0.014
 N          0.009 -0.015  0.013    0.003 -0.017 -0.003   -0.029  0.121 -0.090
 H         -0.346 -0.083  0.097    0.621 -0.142  0.293   -0.279 -0.091  0.170
 H         -0.335 -0.123  0.044   -0.556  0.339 -0.028   -0.431 -0.106  0.016
 H          0.479 -0.223  0.142   -0.055  0.161  0.192    0.694 -0.281  0.229
 TransDip   0.387 -0.082  0.043    0.019  0.031  0.039   -0.114 -0.060  0.056

 Mode:                13                     14                     15
 Frequency:      1090.61                1327.82                1448.01
 Force Cnst:      3.5798                 1.1803                 1.3292
 Red. Mass:       5.1082                 1.1362                 1.0760
 IR Active:          YES                    YES                    YES
 IR Intens:      136.139                 17.646                 40.826
 Raman Active:       YES                    YES                    YES
               X      Y      Z        X      Y      Z        X      Y      Z
 C          0.001 -0.081  0.057   -0.095  0.003 -0.001    0.005 -0.065  0.037
 C         -0.169 -0.048  0.043   -0.043 -0.006  0.006    0.005 -0.003  0.000
 N         -0.071 -0.208  0.157   -0.014  0.008 -0.007   -0.010 -0.003  0.002
 O          0.048 -0.047  0.032   -0.000 -0.005  0.003   -0.002  0.009 -0.007
 N         -0.022  0.026 -0.018    0.006  0.006 -0.005   -0.002 -0.010  0.008
 N          0.197  0.319 -0.242    0.011  0.009 -0.007    0.004  0.002 -0.002
 H          0.218  0.025 -0.083    0.574  0.084  0.048   -0.125  0.215 -0.607
 H          0.230  0.078  0.009    0.572 -0.025 -0.090   -0.052  0.700  0.002
 H         -0.678  0.266 -0.186    0.452 -0.277  0.181    0.190 -0.096  0.162
 TransDip  -0.358 -0.081  0.072   -0.130 -0.025  0.024    0.197  0.051 -0.021

 Mode:                16                     17                     18
 Frequency:      1466.96                1506.43                1876.33
 Force Cnst:      1.3316                18.3147                24.7812
 Red. Mass:       1.0503                13.6978                11.9468
 IR Active:          YES                    YES                    YES
 IR Intens:       15.159                250.338                433.883
 Raman Active:       YES                    YES                    YES
               X      Y      Z        X      Y      Z        X      Y      Z
 C         -0.000 -0.027 -0.053    0.020 -0.021  0.015   -0.038 -0.000 -0.001
 C         -0.003 -0.011 -0.013   -0.067 -0.061  0.049    0.259  0.602 -0.455
 N          0.001  0.001 -0.000    0.034  0.090 -0.068   -0.107 -0.395  0.296
 O          0.000 -0.002  0.002    0.128 -0.485  0.352    0.026 -0.062  0.044
 N          0.000  0.002 -0.002    0.017  0.566 -0.417   -0.093  0.068 -0.047
 N         -0.000  0.002  0.002   -0.143 -0.048  0.041   -0.046 -0.118  0.089
 H         -0.367 -0.231  0.295   -0.074  0.054 -0.175    0.149  0.034  0.013
 H          0.394  0.222 -0.108   -0.104  0.167  0.019    0.159  0.010 -0.040
 H         -0.015  0.408  0.581   -0.029 -0.000 -0.021    0.068 -0.057  0.051
 TransDip  -0.024  0.062  0.106   -0.496  0.093 -0.050    0.547  0.299 -0.236

 Mode:                19                     20                     21
 Frequency:      3044.32                3154.67                3173.45
 Force Cnst:      5.5964                 6.4780                 6.6091
 Red. Mass:       1.0249                 1.1048                 1.1139
 IR Active:          YES                    YES                    YES
 IR Intens:        1.901                  8.490                  1.228
 Raman Active:       YES                    YES                    YES
               X      Y      Z        X      Y      Z        X      Y      Z
 C         -0.035  0.012 -0.013   -0.029 -0.058  0.068   -0.005 -0.072 -0.066
 C         -0.001  0.001 -0.001   -0.001  0.000  0.000   -0.000 -0.000 -0.001
 N         -0.000 -0.001  0.001    0.000 -0.001  0.000    0.000  0.000  0.001
 O          0.000 -0.000  0.000   -0.000  0.000 -0.000   -0.000  0.000  0.000
 N         -0.000  0.000 -0.000   -0.000  0.000 -0.000   -0.000  0.000  0.000
 N          0.000 -0.000  0.000    0.001  0.000 -0.000    0.000  0.000 -0.000
 H          0.082 -0.525 -0.239   -0.029  0.136  0.078   -0.115  0.715  0.324
 H          0.087  0.031  0.637   -0.076 -0.038 -0.491    0.077  0.020  0.564
 H          0.258  0.351 -0.236    0.455  0.596 -0.394    0.101  0.122 -0.103
 TransDip   0.037  0.021 -0.011    0.037  0.065 -0.056    0.015  0.029  0.014

 STANDARD THERMODYNAMIC QUANTITIES AT   298.15 K  AND     1.00 ATM

   This Molecule has  1 Imaginary Frequencies
   Zero point vibrational energy:       34.769 kcal/mol

   Atom    1 Element C  Has Mass   12.00000
   Atom    2 Element C  Has Mass   12.00000
   Atom    3 Element N  Has Mass   14.00307
   Atom    4 Element O  Has Mass   15.99491
   Atom    5 Element N  Has Mass   14.00307
   Atom    6 Element N  Has Mass   14.00307
   Atom    7 Element H  Has Mass    1.00783
   Atom    8 Element H  Has Mass    1.00783
   Atom    9 Element H  Has Mass    1.00783
   Molecular Mass:    85.027610 amu
   Principal axes and moments of inertia in amu*Bohr^2:
                             1           2           3
    Eigenvalues --      169.64615   688.38398   845.78107
          X               0.98486    -0.17146     0.02547
          Y               0.12299     0.79472     0.59439
          Z              -0.12216    -0.58226     0.80377
   Rotational Symmetry Number is   1
   The Molecule is an Asymmetric Top
   Translational Enthalpy:        0.889 kcal/mol
   Rotational Enthalpy:           0.889 kcal/mol
   Vibrational Enthalpy:         36.586 kcal/mol
   gas constant (RT):             0.592 kcal/mol
   Translational Entropy:        39.234  cal/mol.K
   Rotational Entropy:           26.093  cal/mol.K
   Vibrational Entropy:           9.971  cal/mol.K

   Total Enthalpy:               38.956 kcal/mol
   Total Entropy:                75.299  cal/mol.K
Archival summary:
1\1\nid00465\FREQ\ProcedureUnspecified\BasisUnspecified\1323\cgrambow\TueFeb1223:49:312019TueFeb1223:49:312019\0\\#,FREQ,ProcedureUnspecified,BasisUnspecified,\\0,1\C\N,1,1.23496\N,1,1.29852,2,161.005\N,3,1.44376,1,108.715,2,0.380633,0\O,4,1.21086,3,117.586,1,-0.0988167,0\C,1,1.77811,2,74.5914,3,178.946,0\H,6,1.09228,1,125.802,2,-3.41058,0\H,6,1.09266,1,98.1555,2,119.614,0\H,6,1.09374,1,96.588,2,-124.343,0\\\@

 Total job time:  1144.98s(wall), 4342.44s(cpu) 
 Tue Feb 12 23:49:31 2019

        *************************************************************
        *                                                           *
        *  Thank you very much for using Q-Chem.  Have a nice day.  *
        *                                                           *
        *************************************************************



Running Job 2 of 3 ts_optfreq0084.in
qchem ts_optfreq0084.in_11375.1 /tmp/qchem11375/ 1
/global/common/cori/software/qchem/5.1/exe/qcprog.exe ts_optfreq0084.in_11375.1 /tmp/qchem11375/
Check license passed

                  Welcome to Q-Chem
     A Quantum Leap Into The Future Of Chemistry


 Q-Chem 5.1, Q-Chem, Inc., Pleasanton, CA (2018)

 Yihan Shao,  Zhengting Gan,  E. Epifanovsky,  A. T. B. Gilbert,  M. Wormit,  
 J. Kussmann,  A. W. Lange,  A. Behn,  Jia Deng,  Xintian Feng,  D. Ghosh,  
 M. Goldey,  P. R. Horn,  L. D. Jacobson,  I. Kaliman,  T. Kus,  A. Landau,  
 Jie Liu,  E. I. Proynov,  R. M. Richard,  R. P. Steele,  E. J. Sundstrom,  
 H. L. Woodcock III,  P. M. Zimmerman,  D. Zuev,  B. Albrecht,  E. Alguire,  
 S. A. Baeppler,  D. Barton,  Z. Benda,  Y. A. Bernard,  E. J. Berquist,  
 K. B. Bravaya,  H. Burton,  D. Casanova,  Chun-Min Chang,  Yunqing Chen,  
 A. Chien,  K. D. Closser,  M. P. Coons,  S. Coriani,  S. Dasgupta,  
 A. L. Dempwolff,  M. Diedenhofen,  Hainam Do,  R. G. Edgar,  Po-Tung Fang,  
 S. Faraji,  S. Fatehi,  Qingguo Feng,  K. D. Fenk,  J. Fosso-Tande,  
 Qinghui Ge,  A. Ghysels,  G. Gidofalvi,  J. Gomes,  J. Gonthier,  A. Gunina,  
 D. Hait,  M. W. D. Hanson-Heine,  P. H. P. Harbach,  A. W. Hauser,  
 J. E. Herr,  E. G. Hohenstein,  Z. C. Holden,  Kerwin Hui,  B. C. Huynh,  
 T.-C. Jagau,  Hyunjun Ji,  B. Kaduk,  K. Khistyaev,  Jaehoon Kim,  
 P. Klunzinger,  K. Koh,  D. Kosenkov,  L. Koulias,  T. Kowalczyk,  
 C. M. Krauter,  A. Kunitsa,  Ka Un Lao,  A. Laurent,  K. V. Lawler,  
 Joonho Lee,  D. Lefrancois,  S. Lehtola,  D. S. Levine,  Yi-Pei Li,  
 You-Sheng Lin,  Fenglai Liu,  E. Livshits,  A. Luenser,  P. Manohar,  
 E. Mansoor,  S. F. Manzer,  Shan-Ping Mao,  Yuezhi Mao,  N. Mardirossian,  
 A. V. Marenich,  T. Markovich,  L. A. Martinez-Martinez,  S. A. Maurer,  
 N. J. Mayhall,  S. C. McKenzie,  J.-M. Mewes,  A. F. Morrison,  
 J. W. Mullinax,  K. Nanda,  T. S. Nguyen-Beck,  R. Olivares-Amaya,  
 J. A. Parkhill,  T. M. Perrine,  F. Plasser,  P. Pokhilko,  S. Prager,  
 A. Prociuk,  E. Ramos,  D. R. Rehn,  F. Rob,  M. Schneider,  N. Sergueev,  
 S. M. Sharada,  S. Sharma,  D. W. Small,  T. Stauch,  T. Stein,  
 Yu-Chuan Su,  A. J. W. Thom,  A. Tkatchenko,  T. Tsuchimochi,  N. M. Tubman,  
 L. Vogt,  M. L. Vidal,  O. Vydrov,  M. A. Watson,  J. Wenzel,  
 M. de Wergifosse,  T. A. Wesolowski,  A. White,  J. Witte,  A. Yamada,  
 Jun Yang,  K. Yao,  S. Yeganeh,  S. R. Yost,  Zhi-Qiang You,  A. Zech,  
 Igor Ying Zhang,  Xing Zhang,  Yan Zhao,  Ying Zhu,  B. R. Brooks,  
 G. K. L. Chan,  C. J. Cramer,  M. S. Gordon,  W. J. Hehre,  A. Klamt,  
 M. W. Schmidt,  C. D. Sherrill,  D. G. Truhlar,  A. Aspuru-Guzik,  R. Baer,  
 A. T. Bell,  N. A. Besley,  Jeng-Da Chai,  R. A. DiStasio Jr.,  A. Dreuw,  
 B. D. Dunietz,  T. R. Furlani,  Chao-Ping Hsu,  Yousung Jung,  Jing Kong,  
 D. S. Lambrecht,  WanZhen Liang,  C. Ochsenfeld,  V. A. Rassolov,  
 L. V. Slipchenko,  J. E. Subotnik,  T. Van Voorhis,  J. M. Herbert,  
 A. I. Krylov,  P. M. W. Gill,  M. Head-Gordon

 Contributors to earlier versions of Q-Chem not listed above: 
 R. D. Adamson,  B. Austin,  J. Baker,  G. J. O. Beran,  K. Brandhorst,  
 S. T. Brown,  E. F. C. Byrd,  A. K. Chakraborty,  C.-L. Cheng,  
 Siu Hung Chien,  D. M. Chipman,  D. L. Crittenden,  H. Dachsel,  
 R. J. Doerksen,  A. D. Dutoi,  L. Fusti-Molnar,  W. A. Goddard III,  
 A. Golubeva-Zadorozhnaya,  S. R. Gwaltney,  G. Hawkins,  A. Heyden,  
 S. Hirata,  G. Kedziora,  F. J. Keil,  C. Kelley,  Jihan Kim,  R. A. King,  
 R. Z. Khaliullin,  P. P. Korambath,  W. Kurlancheek,  A. M. Lee,  M. S. Lee,  
 S. V. Levchenko,  Ching Yeh Lin,  D. Liotard,  R. C. Lochan,  I. Lotan,  
 P. E. Maslen,  N. Nair,  D. P. O'Neill,  D. Neuhauser,  E. Neuscamman,  
 C. M. Oana,  R. Olson,  B. Peters,  R. Peverati,  P. A. Pieniazek,  
 Y. M. Rhee,  J. Ritchie,  M. A. Rohrdanz,  E. Rosta,  N. J. Russ,  
 H. F. Schaefer III,  N. E. Schultz,  N. Shenvi,  A. C. Simmonett,  A. Sodt,  
 D. Stuck,  K. S. Thanthiriwatte,  V. Vanovschi,  Tao Wang,  A. Warshel,  
 C. F. Williams,  Q. Wu,  X. Xu,  W. Zhang

 Please cite Q-Chem as follows:
 Y. Shao et al., Mol. Phys. 113, 184-215 (2015)
 DOI: 10.1080/00268976.2014.952696

 Q-Chem 5.1.0 for Intel X86 EM64T Linux

 Parts of Q-Chem use Armadillo 8.300.2 (Tropical Shenanigans).
 http://arma.sourceforge.net/

 Q-Chem begins on Tue Feb 12 23:49:31 2019  

Host: cori07
0

     Scratch files written to /tmp/qchem11375//
 Jun2518 |scratch|qcdevops|jenkins|workspace|build_RNUM -1
Processing $rem in /global/common/cori/software/qchem/5.1/config/preferences.
 MEM_TOTAL  96000 
The previous job contains 0 fragments, simply inherited here

Checking the input file for inconsistencies... 	...done.

--------------------------------------------------------------
User input:
--------------------------------------------------------------

$molecule
read
$end

$rem
JOBTYPE                   TS
METHOD                    wB97X-D3
BASIS                     def2-TZVP
UNRESTRICTED              TRUE
SCF_GUESS                 READ
GEOM_OPT_HESSIAN          READ
SCF_ALGORITHM             DIIS
MAX_SCF_CYCLES            100
SCF_CONVERGENCE           8
SYM_IGNORE                TRUE
SYMMETRY                  FALSE
GEOM_OPT_MAX_CYCLES       100
GEOM_OPT_TOL_GRADIENT     100
GEOM_OPT_TOL_DISPLACEMENT 400
GEOM_OPT_TOL_ENERGY       33
WAVEFUNCTION_ANALYSIS     FALSE
$end

--------------------------------------------------------------
 Adding empirical dispersion correction 
 ----------------------------------------------------------------
 Doing -D3(0) with
 s6  =   1.00000
 s8  =   1.00000
 rs6 =   1.28100
 rs8 =   1.09400
 -D3 energy without 3body term =     -0.0012559424 hartrees
 ----------------------------------------------------------------
             Standard Nuclear Orientation (Angstroms)
    I     Atom           X                Y                Z
 ----------------------------------------------------------------
    1      C      -1.4283721416    -0.0699302768     0.0876017259
    2      C       0.3473488260    -0.0089856387     0.0184527490
    3      N       0.0800389254    -0.9742779031     0.7408667455
    4      O       2.7417193295    -0.3656464734     0.1802190412
    5      N       2.4326503856     0.5836860426    -0.5049191596
    6      N       1.0255521224     0.8700698097    -0.6549303062
    7      H      -1.6001808996     0.9146466790     0.5291783520
    8      H      -1.5944017202    -0.1188271356    -0.9923575170
    9      H      -2.0221998276    -0.8319421038     0.5972923692
 ----------------------------------------------------------------
 Nuclear Repulsion Energy =   210.0949689175 hartrees
 There are       22 alpha and       22 beta electrons
 Requested basis set is def2-TZVP
 There are 78 shells and 204 basis functions

 Total QAlloc Memory Limit  96000 MB
 Mega-Array Size       188 MB
 MEM_STATIC part       192 MB
 A cutoff of  1.0D-11 yielded   2839 shell pairs
 There are     19865 function pairs (     26232 Cartesian)
 
 -------------------------------------------------------
 OpenMP Integral Computing Module                       
 Release: version 1.0, May 2013, Q-Chem Inc. Pittsburgh 
 -------------------------------------------------------
 Integral Job Info:
 Integral job number is                      11
 Integral operator is                         1
 short-range coefficients              19572800
 long-range coefficients              100000000
 Omega coefficients                         250
 if combine SR and LR in K                    1
 Integral screening is                        0
 Integral computing path is                   2
 max size of driver memory is            800000
 size of driver memory is                776718
 size of scratch memory is              4473992
 max col of scratch BK array              10000
 max len of scratch array in speh3          662
 max len of scratch index in speh4           32
 max int batch size is                      520
 min int batch size is                       52
 fixed nKL is                                52
 max L of basis functions is                  3
 order of int derivative is                   0
 number of shells is                         78
 number of basis is                         234
 number of cartesian basis is               234
 number of contracted shell pairs          2839
 number of primitive shell pairs           6855
 maxK2 (contraction) of shell pair           36
 max number of K2 of shell pair               1
 max number of CS2 of shell pair            361
 max number of PS2 of shell pair            852
 mem total for path MDJ                  583424
 -------------------------------------------------------
 Smallest overlap matrix eigenvalue = 2.10E-04

 Scale SEOQF with 1.000000e-01/1.000000e+00/1.000000e+00

 Standard Electronic Orientation quadrupole field applied
 Nucleus-field energy     =     0.0000000055 hartrees

 -----------------------------------------------------------------------
  General SCF calculation program by
  Eric Jon Sundstrom, Paul Horn, Yuezhi Mao, Dmitri Zuev, Alec White,
  David Stuck, Shaama M.S., Shane Yost, Joonho Lee, David Small,
  Daniel Levine, Susi Lehtola, Hugh Burton, Evgeny Epifanovsky
 -----------------------------------------------------------------------
 Exchange:     0.1957 Hartree-Fock + 1.0000 wB97X-D3 + LR-HF
 Correlation:  1.0000 wB97X-D3
 Using SG-2 standard quadrature grid
 Dispersion:   Grimme D3
 using 16 threads for integral computing
 -------------------------------------------------------
 OpenMP Integral computing Module                
 Release: version 1.0, May 2013, Q-Chem Inc. Pittsburgh 
 -------------------------------------------------------
 using 16 threads for integral computing
 -------------------------------------------------------
 OpenMP Integral computing Module                
 Release: version 1.0, May 2013, Q-Chem Inc. Pittsburgh 
 -------------------------------------------------------
 -------------------------------------------------------
 OpenMP BLAS3 based DFT computing Module                
 Release: version 1.0, May 2013, Q-Chem Inc. Pittsburgh 
 -------------------------------------------------------
 A unrestricted SCF calculation will be
 performed using DIIS
 SCF converges when DIIS error is below 1.0e-08
 ---------------------------------------
  Cycle       Energy         DIIS error
 ---------------------------------------
    1    -317.3030241370      1.43e-09  
    2    -317.3030241370      1.20e-09  Convergence criterion met
 ---------------------------------------
 SCF time:   CPU 57.94s  wall 4.00s 
<S^2> =         -0.000000000
 SCF   energy in the final basis set =     -317.3030241370
 Total energy in the final basis set =     -317.3030241370
 No wavefunction analysis requested
 Calculating analytic gradient of the SCF energy
 Gradient of SCF Energy
            1           2           3           4           5           6
    1  -0.0038204  -0.0090081   0.0085034   0.0151291   0.0038016  -0.0048839
    2   0.0055665   0.0192871  -0.0352172  -0.0301429   0.0224194   0.0171947
    3  -0.0043305  -0.0134838   0.0262862   0.0214044  -0.0167840  -0.0122865
            7           8           9
    1  -0.0027625  -0.0030579  -0.0039014
    2   0.0039460   0.0002243  -0.0032778
    3   0.0015608  -0.0043490   0.0019825
 Max gradient component =       3.522E-02
 RMS gradient           =       1.447E-02
 Gradient time:  CPU 76.60 s  wall 5.47 s
 Geometry Optimization Parameters
   NAtoms,    NIC,     NZ,  NCons,   NDum,   NFix, NCnnct, MaxDiis
        9      57       0       0       0       0       0       0

 Cartesian Hessian read from HESS file


** GEOMETRY OPTIMIZATION IN DELOCALIZED INTERNAL COORDINATES **
   Searching for a Transition State

   Optimization Cycle:   1

                       Coordinates (Angstroms)
     ATOM                X               Y               Z
      1  C        -1.4283721416   -0.0699302768    0.0876017259
      2  C         0.3473488260   -0.0089856387    0.0184527490
      3  N         0.0800389254   -0.9742779031    0.7408667455
      4  O         2.7417193295   -0.3656464734    0.1802190412
      5  N         2.4326503856    0.5836860426   -0.5049191596
      6  N         1.0255521224    0.8700698097   -0.6549303062
      7  H        -1.6001808996    0.9146466790    0.5291783520
      8  H        -1.5944017202   -0.1188271356   -0.9923575170
      9  H        -2.0221998276   -0.8319421038    0.5972923692
   Point Group: c1    Number of degrees of freedom:    21


   Energy is   -317.303024137


 Attempting to Generate Delocalized Internal Coordinates

 Transforming Cartesian Hessian to Internal Coordinates
 Hessian Transformation does not Include Derivative of B-matrix

 21 Hessian modes will be used to form the next step
  Hessian Eigenvalues:
    -0.037306    0.005439    0.007228    0.025824    0.040044    0.041675
     0.049507    0.081954    0.086049    0.107985    0.109212    0.113404
     0.118596    0.286740    0.342707    0.345425    0.348746    0.541377
     0.602614    0.674677    0.831674

 Transition State Search - Taking P-RFO Step
 Searching for Lamda that Maximizes Along the Lowest mode
 Value Taken    Lamda =   0.00323331
 Searching for Lamda that Minimizes Along All other modes
 Value Taken    Lamda =  -0.00823101
 Calculated Step too Large.  Step scaled by  0.856656
 Step Taken.  Stepsize is  0.300000

                             Maximum     Tolerance    Cnvgd?
         Gradient           0.046740      0.000100      NO
         Displacement       0.134968      0.000400      NO
         Energy change     *********      0.000000      NO


 New Cartesian Coordinates Obtained by Inverse Iteration

 Displacement from previous Coordinates is:  0.413652
 Adding empirical dispersion correction 
 ----------------------------------------------------------------
 Doing -D3(0) with
 s6  =   1.00000
 s8  =   1.00000
 rs6 =   1.28100
 rs8 =   1.09400
 -D3 energy without 3body term =     -0.0012108420 hartrees
 ----------------------------------------------------------------
             Standard Nuclear Orientation (Angstroms)
    I     Atom           X                Y                Z
 ----------------------------------------------------------------
    1      C      -1.3655540708    -0.0456741557     0.0698971461
    2      C       0.3070004894    -0.0452483615     0.0342235892
    3      N       0.1077414445    -1.0080020174     0.7497339910
    4      O       2.6428152440    -0.3498906939     0.1826928518
    5      N       2.3325143775     0.5882866148    -0.4971322562
    6      N       0.9808350902     0.8424746086    -0.6403600235
    7      H      -1.5410922511     0.9315273600     0.5131617067
    8      H      -1.5484328901    -0.1033138511    -1.0012541977
    9      H      -1.9336724337    -0.8113665039     0.5904411926
 ----------------------------------------------------------------
 Nuclear Repulsion Energy =   215.0311810252 hartrees
 There are       22 alpha and       22 beta electrons
 Applying Cartesian multipole field
    Component          Value
    ---------          -----
     (2,0,0)        1.00000E-11
     (0,2,0)        2.00000E-10
     (0,0,2)       -3.00000E-10
 Nucleus-field energy     =     0.0000000053 hartrees
 Requested basis set is def2-TZVP
 There are 78 shells and 204 basis functions
 A cutoff of  1.0D-11 yielded   2866 shell pairs
 There are     20032 function pairs (     26441 Cartesian)
 Smallest overlap matrix eigenvalue = 2.05E-04

 -----------------------------------------------------------------------
  General SCF calculation program by
  Eric Jon Sundstrom, Paul Horn, Yuezhi Mao, Dmitri Zuev, Alec White,
  David Stuck, Shaama M.S., Shane Yost, Joonho Lee, David Small,
  Daniel Levine, Susi Lehtola, Hugh Burton, Evgeny Epifanovsky
 -----------------------------------------------------------------------
 Exchange:     0.1957 Hartree-Fock + 1.0000 wB97X-D3 + LR-HF
 Correlation:  1.0000 wB97X-D3
 Using SG-2 standard quadrature grid
 Dispersion:   Grimme D3
 using 16 threads for integral computing
 -------------------------------------------------------
 OpenMP Integral computing Module                
 Release: version 1.0, May 2013, Q-Chem Inc. Pittsburgh 
 -------------------------------------------------------
 using 16 threads for integral computing
 -------------------------------------------------------
 OpenMP Integral computing Module                
 Release: version 1.0, May 2013, Q-Chem Inc. Pittsburgh 
 -------------------------------------------------------
 -------------------------------------------------------
 OpenMP BLAS3 based DFT computing Module                
 Release: version 1.0, May 2013, Q-Chem Inc. Pittsburgh 
 -------------------------------------------------------
 A unrestricted SCF calculation will be
 performed using DIIS
 SCF converges when DIIS error is below 1.0e-08
 ---------------------------------------
  Cycle       Energy         DIIS error
 ---------------------------------------
    1    -317.2971268412      5.02e-04  
    2    -317.3039559603      1.62e-04  
    3    -317.3045713388      1.53e-04  
    4    -317.3050229720      5.35e-05  
    5    -317.3051042105      2.46e-05  
    6    -317.3051273749      9.14e-06  
    7    -317.3051313402      3.61e-06  
    8    -317.3051320269      2.01e-06  
    9    -317.3051322342      5.60e-07  
   10    -317.3051322713      2.72e-07  
   11    -317.3051322785      1.66e-07  
   12    -317.3051322808      4.95e-08  
   13    -317.3051322812      1.71e-08  
   14    -317.3051322812      9.41e-09  Convergence criterion met
 ---------------------------------------
 SCF time:   CPU 435.02s  wall 30.00s 
<S^2> =         -0.000000000
 SCF   energy in the final basis set =     -317.3051322812
 Total energy in the final basis set =     -317.3051322812
 No wavefunction analysis requested
 Calculating analytic gradient of the SCF energy
 Gradient of SCF Energy
            1           2           3           4           5           6
    1   0.0014945  -0.0017236  -0.0001097   0.0004099  -0.0020624   0.0019653
    2   0.0014581   0.0022030  -0.0054306  -0.0039266   0.0048641   0.0008157
    3  -0.0011974  -0.0013774   0.0043014   0.0027458  -0.0035292  -0.0007672
            7           8           9
    1  -0.0000611  -0.0000492   0.0001362
    2   0.0005222   0.0001323  -0.0006380
    3   0.0002992  -0.0006662   0.0001910
 Max gradient component =       5.431E-03
 RMS gradient           =       2.223E-03
 Gradient time:  CPU 84.51 s  wall 5.97 s
 Geometry Optimization Parameters
   NAtoms,    NIC,     NZ,  NCons,   NDum,   NFix, NCnnct, MaxDiis
        9      57       0       0       0       0       0       0

 Cartesian Hessian Update
 Hessian Updated using Powell/Murtagh-Sargent Update
  Mixing factors:     0.822521 Powell
                      0.177479 Murtagh-Sargent


** GEOMETRY OPTIMIZATION IN DELOCALIZED INTERNAL COORDINATES **
   Searching for a Transition State

   Optimization Cycle:   2

                       Coordinates (Angstroms)
     ATOM                X               Y               Z
      1  C        -1.3655540708   -0.0456741557    0.0698971461
      2  C         0.3070004894   -0.0452483615    0.0342235892
      3  N         0.1077414445   -1.0080020174    0.7497339910
      4  O         2.6428152440   -0.3498906939    0.1826928518
      5  N         2.3325143775    0.5882866148   -0.4971322562
      6  N         0.9808350902    0.8424746086   -0.6403600235
      7  H        -1.5410922511    0.9315273600    0.5131617067
      8  H        -1.5484328901   -0.1033138511   -1.0012541977
      9  H        -1.9336724337   -0.8113665039    0.5904411926
   Point Group: c1    Number of degrees of freedom:    21


   Energy is   -317.305132281

 Hessian Updated using Powell/Murtagh-Sargent Update
  Mixing factors:     0.760235 Powell
                      0.239765 Murtagh-Sargent

 21 Hessian modes will be used to form the next step
  Hessian Eigenvalues:
    -0.044088    0.005351    0.007225    0.025783    0.040285    0.042243
     0.049514    0.081952    0.086002    0.109128    0.112953    0.116814
     0.134089    0.288268    0.342694    0.345435    0.348913    0.541771
     0.602531    0.674253    0.837497

 Transition State Search - Taking P-RFO Step
 Searching for Lamda that Maximizes Along the Lowest mode
 Value Taken    Lamda =   0.00013247
 Searching for Lamda that Minimizes Along All other modes
 Value Taken    Lamda =  -0.00023748
 Step Taken.  Stepsize is  0.095105

                             Maximum     Tolerance    Cnvgd?
         Gradient           0.005687      0.000100      NO
         Displacement       0.046611      0.000400      NO
         Energy change     -0.002108      0.000000      NO


 New Cartesian Coordinates Obtained by Inverse Iteration

 Displacement from previous Coordinates is:  0.122083
 Adding empirical dispersion correction 
 ----------------------------------------------------------------
 Doing -D3(0) with
 s6  =   1.00000
 s8  =   1.00000
 rs6 =   1.28100
 rs8 =   1.09400
 -D3 energy without 3body term =     -0.0012006250 hartrees
 ----------------------------------------------------------------
             Standard Nuclear Orientation (Angstroms)
    I     Atom           X                Y                Z
 ----------------------------------------------------------------
    1      C      -1.3637212570    -0.0432012765     0.0665827326
    2      C       0.2980166304    -0.0382808273     0.0162661281
    3      N       0.1297086124    -1.0097096884     0.7252476641
    4      O       2.6289163566    -0.3580944365     0.1985047567
    5      N       2.3346032801     0.5808750791    -0.4777130658
    6      N       0.9811563125     0.8521135305    -0.6441199320
    7      H      -1.5404681128     0.9345851425     0.5063681928
    8      H      -1.5737483201    -0.1118044678    -0.9978322349
    9      H      -1.9123085023    -0.8076900556     0.6080997585
 ----------------------------------------------------------------
 Nuclear Repulsion Energy =   215.4149249627 hartrees
 There are       22 alpha and       22 beta electrons
 Applying Cartesian multipole field
    Component          Value
    ---------          -----
     (2,0,0)        1.00000E-11
     (0,2,0)        2.00000E-10
     (0,0,2)       -3.00000E-10
 Nucleus-field energy     =     0.0000000057 hartrees
 Requested basis set is def2-TZVP
 There are 78 shells and 204 basis functions
 A cutoff of  1.0D-11 yielded   2868 shell pairs
 There are     20044 function pairs (     26457 Cartesian)
 Smallest overlap matrix eigenvalue = 2.15E-04

 -----------------------------------------------------------------------
  General SCF calculation program by
  Eric Jon Sundstrom, Paul Horn, Yuezhi Mao, Dmitri Zuev, Alec White,
  David Stuck, Shaama M.S., Shane Yost, Joonho Lee, David Small,
  Daniel Levine, Susi Lehtola, Hugh Burton, Evgeny Epifanovsky
 -----------------------------------------------------------------------
 Exchange:     0.1957 Hartree-Fock + 1.0000 wB97X-D3 + LR-HF
 Correlation:  1.0000 wB97X-D3
 Using SG-2 standard quadrature grid
 Dispersion:   Grimme D3
 using 16 threads for integral computing
 -------------------------------------------------------
 OpenMP Integral computing Module                
 Release: version 1.0, May 2013, Q-Chem Inc. Pittsburgh 
 -------------------------------------------------------
 using 16 threads for integral computing
 -------------------------------------------------------
 OpenMP Integral computing Module                
 Release: version 1.0, May 2013, Q-Chem Inc. Pittsburgh 
 -------------------------------------------------------
 -------------------------------------------------------
 OpenMP BLAS3 based DFT computing Module                
 Release: version 1.0, May 2013, Q-Chem Inc. Pittsburgh 
 -------------------------------------------------------
 A unrestricted SCF calculation will be
 performed using DIIS
 SCF converges when DIIS error is below 1.0e-08
 ---------------------------------------
  Cycle       Energy         DIIS error
 ---------------------------------------
    1    -317.3041066428      2.00e-04  
    2    -317.3050940461      5.14e-05  
    3    -317.3051644384      5.67e-05  
    4    -317.3052163157      1.33e-05  
    5    -317.3052240594      8.97e-06  
    6    -317.3052266098      2.41e-06  
    7    -317.3052270834      1.56e-06  
    8    -317.3052272241      6.08e-07  
    9    -317.3052272638      2.72e-07  
   10    -317.3052272753      1.15e-07  
   11    -317.3052272772      5.24e-08  
   12    -317.3052272775      2.43e-08  
   13    -317.3052272775      1.29e-08  
   14    -317.3052272775      5.37e-09  Convergence criterion met
 ---------------------------------------
 SCF time:   CPU 442.78s  wall 31.00s 
<S^2> =         -0.000000000
 SCF   energy in the final basis set =     -317.3052272775
 Total energy in the final basis set =     -317.3052272775
 No wavefunction analysis requested
 Calculating analytic gradient of the SCF energy
 Gradient of SCF Energy
            1           2           3           4           5           6
    1   0.0008429   0.0004385  -0.0018016   0.0006575   0.0017816  -0.0024668
    2   0.0002807  -0.0004724   0.0000047   0.0009800  -0.0010932   0.0004751
    3  -0.0002770   0.0000024   0.0002634  -0.0006200   0.0006390  -0.0001234
            7           8           9
    1   0.0001832   0.0000960   0.0002687
    2  -0.0001182  -0.0000067  -0.0000499
    3   0.0001474   0.0000107  -0.0000426
 Max gradient component =       2.467E-03
 RMS gradient           =       8.081E-04
 Gradient time:  CPU 86.94 s  wall 6.19 s
 Geometry Optimization Parameters
   NAtoms,    NIC,     NZ,  NCons,   NDum,   NFix, NCnnct, MaxDiis
        9      57       0       0       0       0       0       0

 Cartesian Hessian Update
 Hessian Updated using Powell/Murtagh-Sargent Update
  Mixing factors:     0.944317 Powell
                      0.055683 Murtagh-Sargent


** GEOMETRY OPTIMIZATION IN DELOCALIZED INTERNAL COORDINATES **
   Searching for a Transition State

   Optimization Cycle:   3

                       Coordinates (Angstroms)
     ATOM                X               Y               Z
      1  C        -1.3637212570   -0.0432012765    0.0665827326
      2  C         0.2980166304   -0.0382808273    0.0162661281
      3  N         0.1297086124   -1.0097096884    0.7252476641
      4  O         2.6289163566   -0.3580944365    0.1985047567
      5  N         2.3346032801    0.5808750791   -0.4777130658
      6  N         0.9811563125    0.8521135305   -0.6441199320
      7  H        -1.5404681128    0.9345851425    0.5063681928
      8  H        -1.5737483201   -0.1118044678   -0.9978322349
      9  H        -1.9123085023   -0.8076900556    0.6080997585
   Point Group: c1    Number of degrees of freedom:    21


   Energy is   -317.305227278

 Hessian Updated using Powell/Murtagh-Sargent Update
  Mixing factors:     0.972647 Powell
                      0.027353 Murtagh-Sargent

 21 Hessian modes will be used to form the next step
  Hessian Eigenvalues:
    -0.062034    0.004796    0.007384    0.025772    0.040325    0.043046
     0.049801    0.081936    0.086466    0.109181    0.113428    0.119023
     0.130438    0.286929    0.342688    0.345434    0.349008    0.541698
     0.603508    0.674087    0.836082

 Transition State Search - Taking P-RFO Step
 Searching for Lamda that Maximizes Along the Lowest mode
 Value Taken    Lamda =   0.00006163
 Searching for Lamda that Minimizes Along All other modes
 Value Taken    Lamda =  -0.00018972
 Step Taken.  Stepsize is  0.133143

                             Maximum     Tolerance    Cnvgd?
         Gradient           0.004963      0.000100      NO
         Displacement       0.087598      0.000400      NO
         Energy change     -0.000095      0.000000      NO


 New Cartesian Coordinates Obtained by Inverse Iteration

 Displacement from previous Coordinates is:  0.127262
 Adding empirical dispersion correction 
 ----------------------------------------------------------------
 Doing -D3(0) with
 s6  =   1.00000
 s8  =   1.00000
 rs6 =   1.28100
 rs8 =   1.09400
 -D3 energy without 3body term =     -0.0011957854 hartrees
 ----------------------------------------------------------------
             Standard Nuclear Orientation (Angstroms)
    I     Atom           X                Y                Z
 ----------------------------------------------------------------
    1      C      -1.3730621127    -0.0524287091     0.0699299224
    2      C       0.3108645554    -0.0293830903     0.0022794597
    3      N       0.1300462290    -1.0079896909     0.6934397883
    4      O       2.6238226720    -0.3660838271     0.2033701052
    5      N       2.3432013100     0.5860428771    -0.4650926567
    6      N       1.0020518773     0.8671969576    -0.6382232740
    7      H      -1.5360916340     0.9346841463     0.4952122092
    8      H      -1.5944272991    -0.1331616534    -0.9910949914
    9      H      -1.9242505980    -0.8000840103     0.6315834373
 ----------------------------------------------------------------
 Nuclear Repulsion Energy =   215.4778325206 hartrees
 There are       22 alpha and       22 beta electrons
 Applying Cartesian multipole field
    Component          Value
    ---------          -----
     (2,0,0)        1.00000E-11
     (0,2,0)        2.00000E-10
     (0,0,2)       -3.00000E-10
 Nucleus-field energy     =     0.0000000063 hartrees
 Requested basis set is def2-TZVP
 There are 78 shells and 204 basis functions
 A cutoff of  1.0D-11 yielded   2866 shell pairs
 There are     20040 function pairs (     26453 Cartesian)
 Smallest overlap matrix eigenvalue = 2.13E-04

 -----------------------------------------------------------------------
  General SCF calculation program by
  Eric Jon Sundstrom, Paul Horn, Yuezhi Mao, Dmitri Zuev, Alec White,
  David Stuck, Shaama M.S., Shane Yost, Joonho Lee, David Small,
  Daniel Levine, Susi Lehtola, Hugh Burton, Evgeny Epifanovsky
 -----------------------------------------------------------------------
 Exchange:     0.1957 Hartree-Fock + 1.0000 wB97X-D3 + LR-HF
 Correlation:  1.0000 wB97X-D3
 Using SG-2 standard quadrature grid
 Dispersion:   Grimme D3
 using 16 threads for integral computing
 -------------------------------------------------------
 OpenMP Integral computing Module                
 Release: version 1.0, May 2013, Q-Chem Inc. Pittsburgh 
 -------------------------------------------------------
 using 16 threads for integral computing
 -------------------------------------------------------
 OpenMP Integral computing Module                
 Release: version 1.0, May 2013, Q-Chem Inc. Pittsburgh 
 -------------------------------------------------------
 -------------------------------------------------------
 OpenMP BLAS3 based DFT computing Module                
 Release: version 1.0, May 2013, Q-Chem Inc. Pittsburgh 
 -------------------------------------------------------
 A unrestricted SCF calculation will be
 performed using DIIS
 SCF converges when DIIS error is below 1.0e-08
 ---------------------------------------
  Cycle       Energy         DIIS error
 ---------------------------------------
    1    -317.3041364657      1.97e-04  
    2    -317.3050797149      4.85e-05  
    3    -317.3051452033      3.94e-05  
    4    -317.3051750940      1.13e-05  
    5    -317.3051786679      7.97e-06  
    6    -317.3051799912      1.74e-06  
    7    -317.3051802212      1.12e-06  
    8    -317.3051802917      5.38e-07  
    9    -317.3051803168      2.22e-07  
   10    -317.3051803241      1.38e-07  
   11    -317.3051803261      5.26e-08  
   12    -317.3051803264      2.39e-08  
   13    -317.3051803264      6.97e-09  Convergence criterion met
 ---------------------------------------
 SCF time:   CPU 416.44s  wall 29.00s 
<S^2> =         -0.000000000
 SCF   energy in the final basis set =     -317.3051803264
 Total energy in the final basis set =     -317.3051803264
 No wavefunction analysis requested
 Calculating analytic gradient of the SCF energy
 Gradient of SCF Energy
            1           2           3           4           5           6
    1  -0.0014652   0.0013431   0.0011438  -0.0005357  -0.0033411   0.0036755
    2  -0.0004403  -0.0004208   0.0009441  -0.0003323   0.0009448  -0.0009665
    3   0.0001848  -0.0003872  -0.0006128   0.0006060  -0.0009581   0.0011317
            7           8           9
    1  -0.0000849  -0.0002900  -0.0004455
    2   0.0000340   0.0001009   0.0001361
    3   0.0000179  -0.0000246   0.0000423
 Max gradient component =       3.676E-03
 RMS gradient           =       1.169E-03
 Gradient time:  CPU 100.45 s  wall 6.92 s
 Geometry Optimization Parameters
   NAtoms,    NIC,     NZ,  NCons,   NDum,   NFix, NCnnct, MaxDiis
        9      57       0       0       0       0       0       0

 Cartesian Hessian Update
 Hessian Updated using Powell/Murtagh-Sargent Update
  Mixing factors:     0.964254 Powell
                      0.035746 Murtagh-Sargent


** GEOMETRY OPTIMIZATION IN DELOCALIZED INTERNAL COORDINATES **
   Searching for a Transition State

   Optimization Cycle:   4

                       Coordinates (Angstroms)
     ATOM                X               Y               Z
      1  C        -1.3730621127   -0.0524287091    0.0699299224
      2  C         0.3108645554   -0.0293830903    0.0022794597
      3  N         0.1300462290   -1.0079896909    0.6934397883
      4  O         2.6238226720   -0.3660838271    0.2033701052
      5  N         2.3432013100    0.5860428771   -0.4650926567
      6  N         1.0020518773    0.8671969576   -0.6382232740
      7  H        -1.5360916340    0.9346841463    0.4952122092
      8  H        -1.5944272991   -0.1331616534   -0.9910949914
      9  H        -1.9242505980   -0.8000840103    0.6315834373
   Point Group: c1    Number of degrees of freedom:    21


   Energy is   -317.305180326

 Hessian Updated using Powell/Murtagh-Sargent Update
  Mixing factors:     0.920066 Powell
                      0.079934 Murtagh-Sargent

 21 Hessian modes will be used to form the next step
  Hessian Eigenvalues:
    -0.065729    0.001545    0.007917    0.025841    0.040465    0.043505
     0.049775    0.081935    0.086464    0.109486    0.113311    0.127774
     0.140526    0.288574    0.342688    0.345436    0.349036    0.542440
     0.607582    0.674569    0.838780

 Transition State Search - Taking P-RFO Step
 Searching for Lamda that Maximizes Along the Lowest mode
 Value Taken    Lamda =   0.00001065
 Searching for Lamda that Minimizes Along All other modes
 Value Taken    Lamda =  -0.00014956
 Step Taken.  Stepsize is  0.043759

                             Maximum     Tolerance    Cnvgd?
         Gradient           0.003508      0.000100      NO
         Displacement       0.024923      0.000400      NO
         Energy change      0.000047      0.000000      NO


 New Cartesian Coordinates Obtained by Inverse Iteration

 Displacement from previous Coordinates is:  0.039511
 Adding empirical dispersion correction 
 ----------------------------------------------------------------
 Doing -D3(0) with
 s6  =   1.00000
 s8  =   1.00000
 rs6 =   1.28100
 rs8 =   1.09400
 -D3 energy without 3body term =     -0.0011954447 hartrees
 ----------------------------------------------------------------
             Standard Nuclear Orientation (Angstroms)
    I     Atom           X                Y                Z
 ----------------------------------------------------------------
    1      C      -1.3682034725    -0.0509946535     0.0686815760
    2      C       0.3041855467    -0.0279460223     0.0092203875
    3      N       0.1285167987    -1.0111581599     0.6984936212
    4      O       2.6248561041    -0.3679164142     0.1976081957
    5      N       2.3428742332     0.5843832459    -0.4660669049
    6      N       0.9912567757     0.8687112779    -0.6352603104
    7      H      -1.5355482213     0.9361743960     0.4923996500
    8      H      -1.5863597697    -0.1330502896    -0.9928687198
    9      H      -1.9194229949    -0.7994103804     0.6291965046
 ----------------------------------------------------------------
 Nuclear Repulsion Energy =   215.4033696600 hartrees
 There are       22 alpha and       22 beta electrons
 Applying Cartesian multipole field
    Component          Value
    ---------          -----
     (2,0,0)        1.00000E-11
     (0,2,0)        2.00000E-10
     (0,0,2)       -3.00000E-10
 Nucleus-field energy     =     0.0000000064 hartrees
 Requested basis set is def2-TZVP
 There are 78 shells and 204 basis functions
 A cutoff of  1.0D-11 yielded   2867 shell pairs
 There are     20041 function pairs (     26454 Cartesian)
 Smallest overlap matrix eigenvalue = 2.14E-04

 -----------------------------------------------------------------------
  General SCF calculation program by
  Eric Jon Sundstrom, Paul Horn, Yuezhi Mao, Dmitri Zuev, Alec White,
  David Stuck, Shaama M.S., Shane Yost, Joonho Lee, David Small,
  Daniel Levine, Susi Lehtola, Hugh Burton, Evgeny Epifanovsky
 -----------------------------------------------------------------------
 Exchange:     0.1957 Hartree-Fock + 1.0000 wB97X-D3 + LR-HF
 Correlation:  1.0000 wB97X-D3
 Using SG-2 standard quadrature grid
 Dispersion:   Grimme D3
 using 16 threads for integral computing
 -------------------------------------------------------
 OpenMP Integral computing Module                
 Release: version 1.0, May 2013, Q-Chem Inc. Pittsburgh 
 -------------------------------------------------------
 using 16 threads for integral computing
 -------------------------------------------------------
 OpenMP Integral computing Module                
 Release: version 1.0, May 2013, Q-Chem Inc. Pittsburgh 
 -------------------------------------------------------
 -------------------------------------------------------
 OpenMP BLAS3 based DFT computing Module                
 Release: version 1.0, May 2013, Q-Chem Inc. Pittsburgh 
 -------------------------------------------------------
 A unrestricted SCF calculation will be
 performed using DIIS
 SCF converges when DIIS error is below 1.0e-08
 ---------------------------------------
  Cycle       Energy         DIIS error
 ---------------------------------------
    1    -317.3050682923      8.00e-05  
    2    -317.3052190673      2.67e-05  
    3    -317.3052281137      2.72e-05  
    4    -317.3052401516      6.62e-06  
    5    -317.3052410962      3.85e-06  
    6    -317.3052415103      8.97e-07  
    7    -317.3052415615      5.75e-07  
    8    -317.3052415795      2.32e-07  
    9    -317.3052415857      1.01e-07  
   10    -317.3052415868      5.69e-08  
   11    -317.3052415871      2.29e-08  
   12    -317.3052415872      1.03e-08  
   13    -317.3052415872      4.34e-09  Convergence criterion met
 ---------------------------------------
 SCF time:   CPU 419.46s  wall 29.00s 
<S^2> =         -0.000000000
 SCF   energy in the final basis set =     -317.3052415872
 Total energy in the final basis set =     -317.3052415872
 No wavefunction analysis requested
 Calculating analytic gradient of the SCF energy
 Gradient of SCF Energy
            1           2           3           4           5           6
    1   0.0000735  -0.0002401  -0.0000122   0.0001556   0.0007850  -0.0008059
    2  -0.0005789   0.0003266  -0.0001529   0.0000442  -0.0004431   0.0004782
    3   0.0002213   0.0001222  -0.0001852   0.0001360   0.0002222  -0.0004246
            7           8           9
    1   0.0001700   0.0000305  -0.0001564
    2   0.0000812   0.0001232   0.0001216
    3  -0.0000583  -0.0000255  -0.0000082
 Max gradient component =       8.059E-04
 RMS gradient           =       3.154E-04
 Gradient time:  CPU 88.77 s  wall 6.25 s
 Geometry Optimization Parameters
   NAtoms,    NIC,     NZ,  NCons,   NDum,   NFix, NCnnct, MaxDiis
        9      57       0       0       0       0       0       0

 Cartesian Hessian Update
 Hessian Updated using Powell/Murtagh-Sargent Update
  Mixing factors:     0.923375 Powell
                      0.076625 Murtagh-Sargent


** GEOMETRY OPTIMIZATION IN DELOCALIZED INTERNAL COORDINATES **
   Searching for a Transition State

   Optimization Cycle:   5

                       Coordinates (Angstroms)
     ATOM                X               Y               Z
      1  C        -1.3682034725   -0.0509946535    0.0686815760
      2  C         0.3041855467   -0.0279460223    0.0092203875
      3  N         0.1285167987   -1.0111581599    0.6984936212
      4  O         2.6248561041   -0.3679164142    0.1976081957
      5  N         2.3428742332    0.5843832459   -0.4660669049
      6  N         0.9912567757    0.8687112779   -0.6352603104
      7  H        -1.5355482213    0.9361743960    0.4923996500
      8  H        -1.5863597697   -0.1330502896   -0.9928687198
      9  H        -1.9194229949   -0.7994103804    0.6291965046
   Point Group: c1    Number of degrees of freedom:    21


   Energy is   -317.305241587

 Hessian Updated using Powell/Murtagh-Sargent Update
  Mixing factors:     0.902580 Powell
                      0.097420 Murtagh-Sargent

 21 Hessian modes will be used to form the next step
  Hessian Eigenvalues:
    -0.068064    0.001973    0.004614    0.025578    0.039969    0.043989
     0.051315    0.081883    0.086855    0.108057    0.113810    0.124525
     0.163635    0.288021    0.342689    0.345438    0.349025    0.542972
     0.607857    0.675160    0.840683

 Transition State Search - Taking P-RFO Step
 Searching for Lamda that Maximizes Along the Lowest mode
 Value Taken    Lamda =   0.00000032
 Searching for Lamda that Minimizes Along All other modes
 Value Taken    Lamda =  -0.00002744
 Step Taken.  Stepsize is  0.090694

                             Maximum     Tolerance    Cnvgd?
         Gradient           0.000599      0.000100      NO
         Displacement       0.061124      0.000400      NO
         Energy change     -0.000061      0.000000      NO


 New Cartesian Coordinates Obtained by Inverse Iteration

 Displacement from previous Coordinates is:  0.085103
 Adding empirical dispersion correction 
 ----------------------------------------------------------------
 Doing -D3(0) with
 s6  =   1.00000
 s8  =   1.00000
 rs6 =   1.28100
 rs8 =   1.09400
 -D3 energy without 3body term =     -0.0012000925 hartrees
 ----------------------------------------------------------------
             Standard Nuclear Orientation (Angstroms)
    I     Atom           X                Y                Z
 ----------------------------------------------------------------
    1      C      -1.3678881377    -0.0470869703     0.0685581081
    2      C       0.3054382021    -0.0289962711     0.0217164638
    3      N       0.1234851011    -1.0047682231     0.7188791822
    4      O       2.6305062633    -0.3641014042     0.1916862511
    5      N       2.3397380402     0.5811164999    -0.4792898090
    6      N       0.9903716817     0.8580984542    -0.6383913864
    7      H      -1.5469800323     0.9329739204     0.5027644846
    8      H      -1.5725018712    -0.1207845619    -0.9963807134
[...]
    4   0.0285766  -0.1569626   0.1091444  -0.0062246  -0.0123079   0.0087851
    5  -0.0788923  -0.5299275   0.3449479   0.0308245  -0.0341972   0.0129971
    6   0.0539554   0.3468789  -0.2904744  -0.0217307   0.0140900  -0.0241980
    7   0.0234098   0.1246495  -0.0878881   0.0038097   0.0057569  -0.0042834
    8   0.1246495   0.5700926  -0.3830196  -0.0017544   0.0106937  -0.0089085
    9  -0.0878881  -0.3830196   0.3044170   0.0010207  -0.0090671   0.0045246
   10   0.0038097  -0.0017544   0.0010207   0.1883126  -0.1638210   0.1110997
   11   0.0057569   0.0106937  -0.0090671  -0.1638210   0.4920164  -0.3324924
   12  -0.0042834  -0.0089085   0.0045246   0.1110997  -0.3324924   0.2474320
   13   0.0452225   0.0326845  -0.0243896  -0.1278536   0.0589243  -0.0389404
   14   0.0060837  -0.0175888   0.0076084   0.0727210  -0.4644510   0.3104871
   15  -0.0055286   0.0069909  -0.0113408  -0.0486604   0.3108194  -0.2405132
   16  -0.0450660  -0.0357459   0.0271193  -0.0577564   0.1103302  -0.0759603
   17  -0.0457609  -0.0356900   0.0481177   0.0577232  -0.0077075   0.0182368
   18   0.0342011   0.0477970  -0.0038037  -0.0387649   0.0169162   0.0091725
   19   0.0032428  -0.0031835   0.0099894  -0.0012756  -0.0009130  -0.0001081
   20  -0.0016719  -0.0000389   0.0007844  -0.0004143   0.0003750   0.0002332
   21   0.0045083   0.0039186   0.0035282  -0.0005615   0.0007573  -0.0009717
   22   0.0027168  -0.0104428  -0.0003260  -0.0012163  -0.0002161   0.0009682
   23  -0.0045580   0.0021066   0.0047256   0.0004063  -0.0011397   0.0001776
   24   0.0001516   0.0017242   0.0018495   0.0006230  -0.0002948   0.0004711
   25  -0.0267217   0.0040611  -0.0020962   0.0011981   0.0004805  -0.0003641
   26   0.0101769  -0.0041658   0.0042073  -0.0005848  -0.0002015   0.0003491
   27  -0.0064487   0.0043730  -0.0008146   0.0003916   0.0003383   0.0000270
           13          14          15          16          17          18
    1   0.0026323  -0.0023594   0.0015393  -0.0274876  -0.0021065   0.0022476
    2   0.0133745  -0.0039005   0.0021822  -0.0440630  -0.0081982   0.0085806
    3  -0.0095286   0.0026634  -0.0020101   0.0320412   0.0075100  -0.0037281
    4  -0.1475234  -0.0386561   0.0317387  -0.0850631  -0.0662791   0.0466671
    5  -0.1170754   0.0389785  -0.0018532  -0.0401810  -0.2087557   0.0896834
    6   0.0872129  -0.0037500   0.0328410   0.0282272   0.0902393  -0.1484122
    7   0.0452225   0.0060837  -0.0055286  -0.0450660  -0.0457609   0.0342011
    8   0.0326845  -0.0175888   0.0069909  -0.0357459  -0.0356900   0.0477970
    9  -0.0243896   0.0076084  -0.0113408   0.0271193   0.0481177  -0.0038037
   10  -0.1278536   0.0727210  -0.0486604  -0.0577564   0.0577232  -0.0387649
   11   0.0589243  -0.4644510   0.3108194   0.1103302  -0.0077075   0.0169162
   12  -0.0389404   0.3104871  -0.2405132  -0.0759603   0.0182368   0.0091725
   13   0.3362022  -0.0029466  -0.0053782  -0.1031444   0.0134629  -0.0080155
   14  -0.0029466   0.5235342  -0.3418475  -0.0332106  -0.0792593   0.0264335
   15  -0.0053782  -0.3418475   0.2805915   0.0249837   0.0253109  -0.0611656
   16  -0.1031444  -0.0332106   0.0249837   0.3120484   0.0409731  -0.0347940
   17   0.0134629  -0.0792593   0.0253109   0.0409731   0.3390291  -0.1895232
   18  -0.0080155   0.0264335  -0.0611656  -0.0347940  -0.1895232   0.2071424
   19  -0.0033202  -0.0006222   0.0004456   0.0069386   0.0010993  -0.0024767
   20   0.0010362  -0.0001695  -0.0002579  -0.0015540   0.0002188   0.0002278
   21  -0.0002234  -0.0015485   0.0014749  -0.0001198   0.0006268  -0.0007775
   22  -0.0033071  -0.0004608   0.0004969   0.0070026   0.0024669  -0.0003995
   23   0.0006364   0.0018573  -0.0008470  -0.0005990  -0.0009782   0.0002268
   24  -0.0007920   0.0004708  -0.0005197   0.0012308  -0.0003062   0.0003490
   25   0.0010917  -0.0005491   0.0003632  -0.0074720  -0.0015787   0.0013348
   26  -0.0000967   0.0009992  -0.0004979   0.0040501   0.0013409  -0.0003421
   27   0.0000549  -0.0005172   0.0006421  -0.0027281  -0.0002121   0.0012232
           19          20          21          22          23          24
    1  -0.0401885   0.0412632   0.0117585  -0.0443778   0.0010490  -0.0533553
    2   0.0437722  -0.2855670  -0.1049328  -0.0020186  -0.0536013  -0.0251363
    3   0.0160362  -0.1060858  -0.0990554  -0.0569724  -0.0241410  -0.3270881
    4  -0.0268834   0.0027216  -0.0003020  -0.0274302   0.0019534  -0.0015140
    5   0.0253771  -0.0013190  -0.0016059   0.0053290   0.0007421  -0.0005727
    6   0.0038560  -0.0012516   0.0002931  -0.0243865  -0.0001847  -0.0010492
    7   0.0032428  -0.0016719   0.0045083   0.0027168  -0.0045580   0.0001516
    8  -0.0031835  -0.0000389   0.0039186  -0.0104428   0.0021066   0.0017242
    9   0.0099894   0.0007844   0.0035282  -0.0003260   0.0047256   0.0018495
   10  -0.0012756  -0.0004143  -0.0005615  -0.0012163   0.0004063   0.0006230
   11  -0.0009130   0.0003750   0.0007573  -0.0002161  -0.0011397  -0.0002948
   12  -0.0001081   0.0002332  -0.0009717   0.0009682   0.0001776   0.0004711
   13  -0.0033202   0.0010362  -0.0002234  -0.0033071   0.0006364  -0.0007920
   14  -0.0006222  -0.0001695  -0.0015485  -0.0004608   0.0018573   0.0004708
   15   0.0004456  -0.0002579   0.0014749   0.0004969  -0.0008470  -0.0005197
   16   0.0069386  -0.0015540  -0.0001198   0.0070026  -0.0005990   0.0012308
   17   0.0010993   0.0002188   0.0006268   0.0024669  -0.0009782  -0.0003062
   18  -0.0024767   0.0002278  -0.0007775  -0.0003995   0.0002268   0.0003490
   19   0.0548536  -0.0432447  -0.0185157   0.0017862  -0.0074277  -0.0006927
   20  -0.0432447   0.2999880   0.1125274  -0.0016533   0.0027969   0.0025327
   21  -0.0185157   0.1125274   0.0943523   0.0064182  -0.0247210  -0.0050819
   22   0.0017862  -0.0016533   0.0064182   0.0592350   0.0039156   0.0574040
   23  -0.0074277   0.0027969  -0.0247210   0.0039156   0.0464714   0.0240790
   24  -0.0006927   0.0025327  -0.0050819   0.0574040   0.0240790   0.3435437
   25   0.0048466   0.0035172  -0.0029626   0.0055908   0.0046239  -0.0030554
   26  -0.0148576  -0.0162843   0.0149782   0.0030802   0.0017450  -0.0024967
   27  -0.0085340  -0.0087102   0.0062381   0.0167970   0.0206846  -0.0124743
           25          26          27
    1  -0.1155816  -0.1041994   0.0754574
    2  -0.1154904  -0.1803881   0.1038521
    3   0.0835774   0.1035324  -0.1167410
    4   0.0115647  -0.0086661   0.0057472
    5  -0.0061620   0.0009494  -0.0059564
    6   0.0039402  -0.0058782  -0.0034488
    7  -0.0267217   0.0101769  -0.0064487
    8   0.0040611  -0.0041658   0.0043730
    9  -0.0020962   0.0042073  -0.0008146
   10   0.0011981  -0.0005848   0.0003916
   11   0.0004805  -0.0002015   0.0003383
   12  -0.0003641   0.0003491   0.0000270
   13   0.0010917  -0.0000967   0.0000549
   14  -0.0005491   0.0009992  -0.0005172
   15   0.0003632  -0.0004979   0.0006421
   16  -0.0074720   0.0040501  -0.0027281
   17  -0.0015787   0.0013409  -0.0002121
   18   0.0013348  -0.0003421   0.0012232
   19   0.0048466  -0.0148576  -0.0085340
   20   0.0035172  -0.0162843  -0.0087102
   21  -0.0029626   0.0149782   0.0062381
   22   0.0055908   0.0030802   0.0167970
   23   0.0046239   0.0017450   0.0206846
   24  -0.0030554  -0.0024967  -0.0124743
   25   0.1254834   0.1110975  -0.0807373
   26   0.1110975   0.1960053  -0.1138521
   27  -0.0807373  -0.1138521   0.1253483
 Gradient time:  CPU 3622.75 s  wall 1126.46 s
 **********************************************************************
 **                                                                  **
 **                       VIBRATIONAL ANALYSIS                       **
 **                       --------------------                       **
 **                                                                  **
 **        VIBRATIONAL FREQUENCIES (CM**-1) AND NORMAL MODES         **
 **     FORCE CONSTANTS (mDYN/ANGSTROM) AND REDUCED MASSES (AMU)     **
 **                  INFRARED INTENSITIES (KM/MOL)                   **
 **                                                                  **
 **********************************************************************
 

 Mode:                 1                      2                      3
 Frequency:      -441.48                 118.06                 181.61
 Force Cnst:      0.9357                 0.0283                 0.0232
 Red. Mass:       8.1478                 3.4517                 1.1929
 IR Active:          YES                    YES                    YES
 IR Intens:        3.803                  1.745                  2.032
 Raman Active:       YES                    YES                    YES
               X      Y      Z        X      Y      Z        X      Y      Z
 C          0.092  0.220 -0.157    0.003  0.134  0.194    0.005  0.035  0.030
 C         -0.318  0.034 -0.016   -0.004 -0.098 -0.143   -0.002 -0.040 -0.041
 N          0.547 -0.112  0.067   -0.004 -0.098 -0.143   -0.002 -0.050 -0.055
 O         -0.149 -0.073  0.056    0.004  0.117  0.168    0.005  0.009  0.004
 N         -0.186 -0.064  0.049    0.001  0.008  0.013   -0.003  0.038  0.048
 N         -0.005  0.023 -0.017   -0.003 -0.110 -0.158   -0.004 -0.012 -0.006
 H         -0.224  0.134 -0.083    0.157 -0.026  0.612    0.217  0.267 -0.404
 H         -0.206  0.155 -0.094   -0.142  0.584  0.185   -0.202 -0.440  0.112
 H          0.525 -0.023 -0.026    0.004 -0.061 -0.072    0.001  0.410  0.537
 TransDip   0.051 -0.030  0.019    0.001  0.024  0.035    0.001  0.030  0.035

 Mode:                 4                      5                      6
 Frequency:       218.02                 302.34                 449.85
 Force Cnst:      0.1550                 0.6065                 0.6634
 Red. Mass:       5.5357                11.2617                 5.5640
 IR Active:          YES                    YES                    YES
 IR Intens:        1.435                  1.880                  3.004
 Raman Active:       YES                    YES                    YES
               X      Y      Z        X      Y      Z        X      Y      Z
 C          0.047  0.257 -0.190   -0.001  0.021  0.026   -0.386  0.004  0.008
 C         -0.036 -0.199  0.152   -0.008 -0.203 -0.284   -0.246  0.085 -0.054
 N         -0.105 -0.193  0.150    0.005  0.190  0.272    0.053  0.030 -0.025
 O          0.197  0.133 -0.096   -0.004 -0.204 -0.292    0.346  0.008 -0.014
 N         -0.074  0.079 -0.069    0.013  0.348  0.491    0.102 -0.051  0.033
 N         -0.075 -0.157  0.114   -0.005 -0.149 -0.209    0.071 -0.045  0.032
 H          0.186  0.265 -0.153    0.011 -0.080  0.242   -0.536 -0.037  0.038
 H          0.246  0.389 -0.240   -0.007  0.257  0.001   -0.540 -0.071  0.045
 H         -0.169  0.304 -0.342   -0.002 -0.166 -0.230   -0.045 -0.161  0.132
 TransDip  -0.003  0.030 -0.024   -0.001 -0.025 -0.036   -0.050 -0.019  0.015

 Mode:                 7                      8                      9
 Frequency:       655.12                 667.96                 801.28
 Force Cnst:      1.4199                 2.3954                 1.5442
 Red. Mass:       5.6154                 9.1123                 4.0820
 IR Active:          YES                    YES                    YES
 IR Intens:       10.168                  8.095                 81.327
 Raman Active:       YES                    YES                    YES
               X      Y      Z        X      Y      Z        X      Y      Z
 C          0.426 -0.045  0.023   -0.012  0.018  0.022    0.007  0.022 -0.012
 C         -0.314  0.126 -0.067    0.023  0.358  0.515   -0.079 -0.035  0.024
 N         -0.201  0.062 -0.045    0.001 -0.140 -0.193   -0.110 -0.055  0.041
 O          0.175 -0.009 -0.000   -0.008 -0.047 -0.069   -0.159  0.068 -0.044
 N         -0.054 -0.060  0.049    0.006  0.125  0.171    0.010  0.135 -0.096
 N         -0.082 -0.020  0.007   -0.005 -0.246 -0.346    0.364 -0.105  0.066
 H         -0.054 -0.178  0.150   -0.378  0.029 -0.128   -0.409 -0.125  0.150
 H         -0.032 -0.222  0.122    0.372 -0.125 -0.035   -0.395 -0.202  0.087
 H          0.661 -0.177  0.113   -0.021 -0.013 -0.030    0.517 -0.251  0.162
 TransDip   0.035 -0.077  0.057    0.001  0.055  0.073   -0.277 -0.064  0.051

 Mode:                10                     11                     12
 Frequency:       922.91                 988.14                1034.23
 Force Cnst:      4.5642                 0.7209                 1.4398
 Red. Mass:       9.0948                 1.2531                 2.2846
 IR Active:          YES                    YES                    YES
 IR Intens:      280.148                  3.937                  2.645
 Raman Active:       YES                    YES                    YES
               X      Y      Z        X      Y      Z        X      Y      Z
 C          0.018  0.078 -0.048   -0.000 -0.078 -0.100   -0.032  0.084 -0.073
 C         -0.129 -0.011  0.007   -0.012  0.044  0.055    0.172 -0.062  0.048
 N         -0.021 -0.164  0.114    0.003  0.012  0.017   -0.060 -0.052  0.040
 O         -0.182  0.031 -0.017   -0.005 -0.001 -0.006    0.062 -0.038  0.025
 N          0.645  0.048 -0.050    0.009  0.007  0.003   -0.078 -0.034  0.027
 N         -0.312  0.042 -0.021    0.004 -0.015 -0.009   -0.047  0.146 -0.103
 H         -0.299 -0.026  0.053    0.605 -0.136  0.284   -0.311 -0.087  0.184
 H         -0.250 -0.095  0.022   -0.566  0.340 -0.017   -0.440 -0.147  0.034
 H          0.433 -0.146  0.078   -0.025  0.172  0.216    0.667 -0.247  0.187
 TransDip   0.529 -0.076  0.039    0.006  0.036  0.052   -0.029 -0.033  0.028

 Mode:                13                     14                     15
 Frequency:      1115.02                1325.09                1441.85
 Force Cnst:      3.9226                 1.1821                 1.3108
 Red. Mass:       5.3549                 1.1426                 1.0701
 IR Active:          YES                    YES                    YES
 IR Intens:       57.447                  7.866                 49.874
 Raman Active:       YES                    YES                    YES
               X      Y      Z        X      Y      Z        X      Y      Z
 C          0.035 -0.092  0.067   -0.096  0.006  0.001    0.008 -0.058  0.042
 C         -0.209 -0.066  0.049   -0.046 -0.005  0.006    0.010 -0.001  0.001
 N         -0.071 -0.206  0.147   -0.013  0.000 -0.000   -0.013 -0.001  0.001
 O          0.040 -0.035  0.024    0.000 -0.004  0.002   -0.001  0.005 -0.004
 N          0.017  0.013 -0.010    0.004  0.005 -0.003   -0.001 -0.006  0.004
 N          0.180  0.338 -0.243    0.015  0.014 -0.011   -0.000 -0.001  0.001
 H          0.156  0.026 -0.131    0.576  0.101  0.031   -0.114  0.222 -0.632
 H          0.206  0.130  0.007    0.539 -0.041 -0.114   -0.120  0.657  0.006
 H         -0.681  0.253 -0.163    0.482 -0.287  0.159    0.230 -0.159  0.090
 TransDip  -0.220 -0.081  0.063   -0.086 -0.023  0.012    0.217  0.048 -0.044

 Mode:                16                     17                     18
 Frequency:      1459.23                1613.70                1975.56
 Force Cnst:      1.3110                22.1974                28.0446
 Red. Mass:       1.0450                14.4678                12.1961
 IR Active:          YES                    YES                    YES
 IR Intens:       14.814                282.919                224.457
 Raman Active:       YES                    YES                    YES
               X      Y      Z        X      Y      Z        X      Y      Z
 C         -0.005 -0.032 -0.043    0.015 -0.009  0.006   -0.043 -0.004  0.004
 C         -0.001 -0.013 -0.017   -0.050 -0.059  0.043    0.215  0.625 -0.447
 N         -0.001  0.001  0.001    0.020  0.077 -0.055   -0.069 -0.432  0.307
 O          0.000  0.000  0.000    0.138 -0.514  0.359    0.024 -0.053  0.037
 N          0.000 -0.000 -0.000   -0.026  0.594 -0.419   -0.102  0.057 -0.038
 N          0.000  0.002  0.002   -0.112 -0.035  0.027   -0.020 -0.098  0.070
 H         -0.371 -0.201  0.231   -0.064  0.024 -0.091    0.134  0.042 -0.000
 H          0.403  0.300 -0.137   -0.064  0.094  0.010    0.133  0.010 -0.045
 H          0.047  0.391  0.582   -0.001 -0.000 -0.002   -0.031 -0.028  0.021
 TransDip   0.004  0.072  0.100   -0.529  0.090 -0.050    0.369  0.246 -0.183

 Mode:                19                     20                     21
 Frequency:      3099.27                3213.96                3227.77
 Force Cnst:      5.8062                 6.7109                 6.8361
 Red. Mass:       1.0259                 1.1027                 1.1137
 IR Active:          YES                    YES                    YES
 IR Intens:        2.814                  9.704                  1.319
 Raman Active:       YES                    YES                    YES
               X      Y      Z        X      Y      Z        X      Y      Z
 C         -0.036  0.015 -0.011   -0.027 -0.071  0.053   -0.002 -0.058 -0.079
 C         -0.001  0.002 -0.001   -0.001  0.000 -0.000   -0.000 -0.001 -0.001
 N         -0.000 -0.001  0.001   -0.000 -0.001  0.001    0.000  0.000  0.001
 O          0.000 -0.000  0.000   -0.000 -0.000  0.000   -0.000  0.000  0.000
 N         -0.000  0.000 -0.000   -0.000  0.000 -0.000    0.000 -0.000 -0.000
 N          0.001 -0.000  0.000    0.001  0.000 -0.000    0.000  0.000  0.000
 H          0.092 -0.563 -0.246   -0.054  0.279  0.138   -0.108  0.645  0.279
 H          0.116  0.047  0.615   -0.069 -0.040 -0.325    0.131  0.049  0.682
 H          0.231  0.329 -0.241    0.450  0.612 -0.450    0.005 -0.004 -0.019
 TransDip   0.050  0.016 -0.012    0.044  0.072 -0.053    0.001  0.022  0.029

 STANDARD THERMODYNAMIC QUANTITIES AT   298.15 K  AND     1.00 ATM

   This Molecule has  1 Imaginary Frequencies
   Zero point vibrational energy:       35.469 kcal/mol

   Atom    1 Element C  Has Mass   12.00000
   Atom    2 Element C  Has Mass   12.00000
   Atom    3 Element N  Has Mass   14.00307
   Atom    4 Element O  Has Mass   15.99491
   Atom    5 Element N  Has Mass   14.00307
   Atom    6 Element N  Has Mass   14.00307
   Atom    7 Element H  Has Mass    1.00783
   Atom    8 Element H  Has Mass    1.00783
   Atom    9 Element H  Has Mass    1.00783
   Molecular Mass:    85.027610 amu
   Principal axes and moments of inertia in amu*Bohr^2:
                             1           2           3
    Eigenvalues --      169.77957   631.13783   788.84126
          X               0.98557    -0.16802     0.02046
          Y               0.12563     0.80714     0.57684
          Z              -0.11343    -0.56595     0.81660
   Rotational Symmetry Number is   1
   The Molecule is an Asymmetric Top
   Translational Enthalpy:        0.889 kcal/mol
   Rotational Enthalpy:           0.889 kcal/mol
   Vibrational Enthalpy:         37.358 kcal/mol
   gas constant (RT):             0.592 kcal/mol
   Translational Entropy:        39.234  cal/mol.K
   Rotational Entropy:           25.938  cal/mol.K
   Vibrational Entropy:          10.964  cal/mol.K

   Total Enthalpy:               39.728 kcal/mol
   Total Entropy:                76.137  cal/mol.K
Archival summary:
1\1\nid00465\FREQ\ProcedureUnspecified\BasisUnspecified\1323\cgrambow\WedFeb1300:13:172019WedFeb1300:13:172019\0\\#,FREQ,ProcedureUnspecified,BasisUnspecified,\\0,1\C\N,1,1.21331\N,1,1.30063,2,156.612\N,3,1.38879,1,108.344,2,-0.0400169,0\O,4,1.195,3,117.343,1,0.0285538,0\C,1,1.67435,2,79.8712,3,179.94,0\H,6,1.0855,1,122.195,2,0.347885,0\H,6,1.08691,1,99.4054,2,-121.111,0\H,6,1.08698,1,99.2425,2,121.611,0\\\@

 Total job time:  1131.29s(wall), 3692.11s(cpu) 
 Wed Feb 13 00:13:17 2019

        *************************************************************
        *                                                           *
        *  Thank you very much for using Q-Chem.  Have a nice day.  *
        *                                                           *
        *************************************************************


