
Running Job 1 of 2 prod_optfreq0153.in
qchem prod_optfreq0153.in_11554.0 /tmp/qchem11554/ 1
/global/common/cori/software/qchem/5.1/exe/qcprog.exe prod_optfreq0153.in_11554.0 /tmp/qchem11554/
Check license passed

                  Welcome to Q-Chem
     A Quantum Leap Into The Future Of Chemistry


 Q-Chem 5.1, Q-Chem, Inc., Pleasanton, CA (2018)

 Yihan Shao,  Zhengting Gan,  E. Epifanovsky,  A. T. B. Gilbert,  M. Wormit,  
 J. Kussmann,  A. W. Lange,  A. Behn,  Jia Deng,  Xintian Feng,  D. Ghosh,  
 M. Goldey,  P. R. Horn,  L. D. Jacobson,  I. Kaliman,  T. Kus,  A. Landau,  
 Jie Liu,  E. I. Proynov,  R. M. Richard,  R. P. Steele,  E. J. Sundstrom,  
 H. L. Woodcock III,  P. M. Zimmerman,  D. Zuev,  B. Albrecht,  E. Alguire,  
 S. A. Baeppler,  D. Barton,  Z. Benda,  Y. A. Bernard,  E. J. Berquist,  
 K. B. Bravaya,  H. Burton,  D. Casanova,  Chun-Min Chang,  Yunqing Chen,  
 A. Chien,  K. D. Closser,  M. P. Coons,  S. Coriani,  S. Dasgupta,  
 A. L. Dempwolff,  M. Diedenhofen,  Hainam Do,  R. G. Edgar,  Po-Tung Fang,  
 S. Faraji,  S. Fatehi,  Qingguo Feng,  K. D. Fenk,  J. Fosso-Tande,  
 Qinghui Ge,  A. Ghysels,  G. Gidofalvi,  J. Gomes,  J. Gonthier,  A. Gunina,  
 D. Hait,  M. W. D. Hanson-Heine,  P. H. P. Harbach,  A. W. Hauser,  
 J. E. Herr,  E. G. Hohenstein,  Z. C. Holden,  Kerwin Hui,  B. C. Huynh,  
 T.-C. Jagau,  Hyunjun Ji,  B. Kaduk,  K. Khistyaev,  Jaehoon Kim,  
 P. Klunzinger,  K. Koh,  D. Kosenkov,  L. Koulias,  T. Kowalczyk,  
 C. M. Krauter,  A. Kunitsa,  Ka Un Lao,  A. Laurent,  K. V. Lawler,  
 Joonho Lee,  D. Lefrancois,  S. Lehtola,  D. S. Levine,  Yi-Pei Li,  
 You-Sheng Lin,  Fenglai Liu,  E. Livshits,  A. Luenser,  P. Manohar,  
 E. Mansoor,  S. F. Manzer,  Shan-Ping Mao,  Yuezhi Mao,  N. Mardirossian,  
 A. V. Marenich,  T. Markovich,  L. A. Martinez-Martinez,  S. A. Maurer,  
 N. J. Mayhall,  S. C. McKenzie,  J.-M. Mewes,  A. F. Morrison,  
 J. W. Mullinax,  K. Nanda,  T. S. Nguyen-Beck,  R. Olivares-Amaya,  
 J. A. Parkhill,  T. M. Perrine,  F. Plasser,  P. Pokhilko,  S. Prager,  
 A. Prociuk,  E. Ramos,  D. R. Rehn,  F. Rob,  M. Schneider,  N. Sergueev,  
 S. M. Sharada,  S. Sharma,  D. W. Small,  T. Stauch,  T. Stein,  
 Yu-Chuan Su,  A. J. W. Thom,  A. Tkatchenko,  T. Tsuchimochi,  N. M. Tubman,  
 L. Vogt,  M. L. Vidal,  O. Vydrov,  M. A. Watson,  J. Wenzel,  
 M. de Wergifosse,  T. A. Wesolowski,  A. White,  J. Witte,  A. Yamada,  
 Jun Yang,  K. Yao,  S. Yeganeh,  S. R. Yost,  Zhi-Qiang You,  A. Zech,  
 Igor Ying Zhang,  Xing Zhang,  Yan Zhao,  Ying Zhu,  B. R. Brooks,  
 G. K. L. Chan,  C. J. Cramer,  M. S. Gordon,  W. J. Hehre,  A. Klamt,  
 M. W. Schmidt,  C. D. Sherrill,  D. G. Truhlar,  A. Aspuru-Guzik,  R. Baer,  
 A. T. Bell,  N. A. Besley,  Jeng-Da Chai,  R. A. DiStasio Jr.,  A. Dreuw,  
 B. D. Dunietz,  T. R. Furlani,  Chao-Ping Hsu,  Yousung Jung,  Jing Kong,  
 D. S. Lambrecht,  WanZhen Liang,  C. Ochsenfeld,  V. A. Rassolov,  
 L. V. Slipchenko,  J. E. Subotnik,  T. Van Voorhis,  J. M. Herbert,  
 A. I. Krylov,  P. M. W. Gill,  M. Head-Gordon

 Contributors to earlier versions of Q-Chem not listed above: 
 R. D. Adamson,  B. Austin,  J. Baker,  G. J. O. Beran,  K. Brandhorst,  
 S. T. Brown,  E. F. C. Byrd,  A. K. Chakraborty,  C.-L. Cheng,  
 Siu Hung Chien,  D. M. Chipman,  D. L. Crittenden,  H. Dachsel,  
 R. J. Doerksen,  A. D. Dutoi,  L. Fusti-Molnar,  W. A. Goddard III,  
 A. Golubeva-Zadorozhnaya,  S. R. Gwaltney,  G. Hawkins,  A. Heyden,  
 S. Hirata,  G. Kedziora,  F. J. Keil,  C. Kelley,  Jihan Kim,  R. A. King,  
 R. Z. Khaliullin,  P. P. Korambath,  W. Kurlancheek,  A. M. Lee,  M. S. Lee,  
 S. V. Levchenko,  Ching Yeh Lin,  D. Liotard,  R. C. Lochan,  I. Lotan,  
 P. E. Maslen,  N. Nair,  D. P. O'Neill,  D. Neuhauser,  E. Neuscamman,  
 C. M. Oana,  R. Olson,  B. Peters,  R. Peverati,  P. A. Pieniazek,  
 Y. M. Rhee,  J. Ritchie,  M. A. Rohrdanz,  E. Rosta,  N. J. Russ,  
 H. F. Schaefer III,  N. E. Schultz,  N. Shenvi,  A. C. Simmonett,  A. Sodt,  
 D. Stuck,  K. S. Thanthiriwatte,  V. Vanovschi,  Tao Wang,  A. Warshel,  
 C. F. Williams,  Q. Wu,  X. Xu,  W. Zhang

 Please cite Q-Chem as follows:
 Y. Shao et al., Mol. Phys. 113, 184-215 (2015)
 DOI: 10.1080/00268976.2014.952696

 Q-Chem 5.1.0 for Intel X86 EM64T Linux

 Parts of Q-Chem use Armadillo 8.300.2 (Tropical Shenanigans).
 http://arma.sourceforge.net/

 Q-Chem begins on Fri Feb 15 03:47:33 2019  

Host: cori05
0

     Scratch files written to /tmp/qchem11554//
 Jun2518 |scratch|qcdevops|jenkins|workspace|build_RNUM -1
Processing $rem in /global/common/cori/software/qchem/5.1/config/preferences.
 MEM_TOTAL  96000 

Checking the input file for inconsistencies... 	...done.

--------------------------------------------------------------
User input:
--------------------------------------------------------------
$molecule
0 1
C   1.1392188660  -0.6569680606  -1.5331267643
C   0.0069141684  -0.1702423996   1.6539107391
C   0.9351234087   0.7959833685   1.6042007403
C   0.0947201892   0.1750896241  -1.6531709582
C  -1.0299505093   0.3707652578  -0.6660157678
C  -1.0143494767  -0.5066731043   0.5943004690
H   1.2930707198  -1.2686692397  -0.6446603604
H   1.8897970273  -0.7369042712  -2.3201908464
H  -0.0554229891  -0.7891112985   2.5551265569
H   1.0632919071   1.4329469147   0.7292701740
H   1.6149787228   0.9681265281   2.4391867335
H   0.0087188493   0.7785838027  -2.5628159551
H  -1.9778465919   0.1899179310  -1.2015627230
H  -1.0701393107   1.4336359354  -0.3705848691
H  -0.8945833609  -1.5641627627   0.3007143903
H  -2.0115876199  -0.4544852256   1.0642804409
$end

$rem
JOBTYPE                   OPT
METHOD                    wB97X-D3
BASIS                     def2-TZVP
UNRESTRICTED              TRUE
SCF_ALGORITHM             DIIS
MAX_SCF_CYCLES            100
SCF_CONVERGENCE           8
SYM_IGNORE                TRUE
SYMMETRY                  FALSE
GEOM_OPT_MAX_CYCLES       100
GEOM_OPT_TOL_GRADIENT     100
GEOM_OPT_TOL_DISPLACEMENT 400
GEOM_OPT_TOL_ENERGY       33
WAVEFUNCTION_ANALYSIS     FALSE
$end

--------------------------------------------------------------
 Adding empirical dispersion correction 
 ----------------------------------------------------------------
 Doing -D3(0) with
 s6  =   1.00000
 s8  =   1.00000
 rs6 =   1.28100
 rs8 =   1.09400
 -D3 energy without 3body term =     -0.0043020610 hartrees
 ----------------------------------------------------------------
             Standard Nuclear Orientation (Angstroms)
    I     Atom           X                Y                Z
 ----------------------------------------------------------------
    1      C       1.1392188660    -0.6569680606    -1.5331267643
    2      C       0.0069141684    -0.1702423996     1.6539107391
    3      C       0.9351234087     0.7959833685     1.6042007403
    4      C       0.0947201892     0.1750896241    -1.6531709582
    5      C      -1.0299505093     0.3707652578    -0.6660157678
    6      C      -1.0143494767    -0.5066731043     0.5943004690
    7      H       1.2930707198    -1.2686692397    -0.6446603604
    8      H       1.8897970273    -0.7369042712    -2.3201908464
    9      H      -0.0554229891    -0.7891112985     2.5551265569
   10      H       1.0632919071     1.4329469147     0.7292701740
   11      H       1.6149787228     0.9681265281     2.4391867335
   12      H       0.0087188493     0.7785838027    -2.5628159551
   13      H      -1.9778465919     0.1899179310    -1.2015627230
   14      H      -1.0701393107     1.4336359354    -0.3705848691
   15      H      -0.8945833609    -1.5641627627     0.3007143903
   16      H      -2.0115876199    -0.4544852256     1.0642804409
 ----------------------------------------------------------------
 Nuclear Repulsion Energy =   222.4241836629 hartrees
 There are       23 alpha and       23 beta electrons
 Requested basis set is def2-TZVP
 There are 106 shells and 246 basis functions

 Total QAlloc Memory Limit  96000 MB
 Mega-Array Size       188 MB
 MEM_STATIC part       192 MB
 A cutoff of  1.0D-11 yielded   5336 shell pairs
 There are     29448 function pairs (     37279 Cartesian)
 
 -------------------------------------------------------
 OpenMP Integral Computing Module                       
 Release: version 1.0, May 2013, Q-Chem Inc. Pittsburgh 
 -------------------------------------------------------
 Integral Job Info:
 Integral job number is                      11
 Integral operator is                         1
 short-range coefficients              19572800
 long-range coefficients              100000000
 Omega coefficients                         250
 if combine SR and LR in K                    1
 Integral screening is                        0
 Integral computing path is                   2
 max size of driver memory is            800000
 size of driver memory is                776718
 size of scratch memory is              4473992
 max col of scratch BK array              10000
 max len of scratch array in speh3          662
 max len of scratch index in speh4           32
 max int batch size is                      520
 min int batch size is                       52
 fixed nKL is                                52
 max L of basis functions is                  3
 order of int derivative is                   0
 number of shells is                        106
 number of basis is                         276
 number of cartesian basis is               276
 number of contracted shell pairs          5336
 number of primitive shell pairs          11958
 maxK2 (contraction) of shell pair           36
 max number of K2 of shell pair               1
 max number of CS2 of shell pair            876
 max number of PS2 of shell pair           1548
 mem total for path MDJ                  587568
 -------------------------------------------------------
 Smallest overlap matrix eigenvalue = 1.05E-04

 Scale SEOQF with 1.000000e-01/1.000000e-01/1.000000e-01

 Standard Electronic Orientation quadrupole field applied
 Nucleus-field energy     =    -0.0000000072 hartrees
 Guess from superposition of atomic densities
 Warning:  Energy on first SCF cycle will be non-variational
 SAD guess density has 46.000000 electrons

 -----------------------------------------------------------------------
  General SCF calculation program by
  Eric Jon Sundstrom, Paul Horn, Yuezhi Mao, Dmitri Zuev, Alec White,
  David Stuck, Shaama M.S., Shane Yost, Joonho Lee, David Small,
  Daniel Levine, Susi Lehtola, Hugh Burton, Evgeny Epifanovsky
 -----------------------------------------------------------------------
 Exchange:     0.1957 Hartree-Fock + 1.0000 wB97X-D3 + LR-HF
 Correlation:  1.0000 wB97X-D3
 Using SG-2 standard quadrature grid
 Dispersion:   Grimme D3
 using 16 threads for integral computing
 -------------------------------------------------------
 OpenMP Integral computing Module                
 Release: version 1.0, May 2013, Q-Chem Inc. Pittsburgh 
 -------------------------------------------------------
 using 16 threads for integral computing
 -------------------------------------------------------
 OpenMP Integral computing Module                
 Release: version 1.0, May 2013, Q-Chem Inc. Pittsburgh 
 -------------------------------------------------------
 -------------------------------------------------------
 OpenMP BLAS3 based DFT computing Module                
 Release: version 1.0, May 2013, Q-Chem Inc. Pittsburgh 
 -------------------------------------------------------
 A unrestricted SCF calculation will be
 performed using DIIS
 SCF converges when DIIS error is below 1.0e-08
 ---------------------------------------
  Cycle       Energy         DIIS error
 ---------------------------------------
    1    -236.0014361707      1.67e-02  
    2    -234.5624969747      1.35e-03  
    3    -234.5978577938      9.21e-04  
    4    -234.6229574919      8.04e-05  
    5    -234.6232462065      3.20e-05  
    6    -234.6232782350      1.06e-05  
    7    -234.6232821750      3.68e-06  
    8    -234.6232827111      8.40e-07  
    9    -234.6232827451      3.53e-07  
   10    -234.6232827504      5.92e-08  
   11    -234.6232827506      1.49e-08  
   12    -234.6232827507      3.58e-09  Convergence criterion met
 ---------------------------------------
 SCF time:   CPU 641.90s  wall 42.00s 
<S^2> =         -0.000000000
 SCF   energy in the final basis set =     -234.6232827507
 Total energy in the final basis set =     -234.6232827507
 No wavefunction analysis requested
 Calculating analytic gradient of the SCF energy
 Gradient of SCF Energy
            1           2           3           4           5           6
    1   0.0111177  -0.0092656   0.0099608  -0.0105337   0.0008562   0.0009566
    2  -0.0096976  -0.0099835   0.0108320   0.0088882   0.0005622  -0.0004832
    3   0.0018815  -0.0003513  -0.0010459  -0.0002329  -0.0021081   0.0021683
            7           8           9          10          11          12
    1   0.0009746   0.0039413  -0.0008551   0.0009457   0.0034909  -0.0010618
    2  -0.0021543  -0.0007186  -0.0031289   0.0024028   0.0013137   0.0029500
    3   0.0033769  -0.0034068   0.0037958  -0.0032971   0.0036521  -0.0038943
           13          14          15          16
    1  -0.0048069  -0.0006393   0.0000068  -0.0050884
    2  -0.0008150   0.0044402  -0.0045216   0.0001135
    3  -0.0023399   0.0017276  -0.0018306   0.0019049
 Max gradient component =       1.112E-02
 RMS gradient           =       4.723E-03
 Gradient time:  CPU 149.62 s  wall 9.94 s
 Geometry Optimization Parameters
   NAtoms,    NIC,     NZ,  NCons,   NDum,   NFix, NCnnct, MaxDiis
       16     100       0       0       0       0       0       0


** GEOMETRY OPTIMIZATION IN DELOCALIZED INTERNAL COORDINATES **
   Searching for a Minimum

   Optimization Cycle:   1

                       Coordinates (Angstroms)
     ATOM                X               Y               Z
      1  C         1.1392188660   -0.6569680606   -1.5331267643
      2  C         0.0069141684   -0.1702423996    1.6539107391
      3  C         0.9351234087    0.7959833685    1.6042007403
      4  C         0.0947201892    0.1750896241   -1.6531709582
      5  C        -1.0299505093    0.3707652578   -0.6660157678
      6  C        -1.0143494767   -0.5066731043    0.5943004690
      7  H         1.2930707198   -1.2686692397   -0.6446603604
      8  H         1.8897970273   -0.7369042712   -2.3201908464
      9  H        -0.0554229891   -0.7891112985    2.5551265569
     10  H         1.0632919071    1.4329469147    0.7292701740
     11  H         1.6149787228    0.9681265281    2.4391867335
     12  H         0.0087188493    0.7785838027   -2.5628159551
     13  H        -1.9778465919    0.1899179310   -1.2015627230
     14  H        -1.0701393107    1.4336359354   -0.3705848691
     15  H        -0.8945833609   -1.5641627627    0.3007143903
     16  H        -2.0115876199   -0.4544852256    1.0642804409
   Point Group: c1    Number of degrees of freedom:    42


   Energy is   -234.623282751


 Attempting to Generate Delocalized Internal Coordinates

 42 Hessian modes will be used to form the next step
  Hessian Eigenvalues:
     0.004449    0.007907    0.007963    0.017232    0.017265    0.030240
     0.030243    0.030253    0.030256    0.036832    0.036864    0.053832
     0.053840    0.101706    0.101719    0.133553    0.133567    0.159981
     0.159982    0.160000    0.160000    0.160000    0.160000    0.219679
     0.219690    0.220005    0.220006    0.288984    0.313891    0.314322
     0.332434    0.332548    0.332794    0.332827    0.342386    0.342396
     0.347530    0.347630    0.348363    0.348593    0.570291    0.570351

 Minimum Search - Taking Simple RFO Step
 Searching for Lamda that Minimizes Along All modes
 Value Taken    Lamda =  -0.00268275
 Step Taken.  Stepsize is  0.163305

                             Maximum     Tolerance    Cnvgd?
         Gradient           0.016606      0.000100      NO
         Displacement       0.094501      0.000400      NO
         Energy change     *********      0.000000      NO


 New Cartesian Coordinates Obtained by Inverse Iteration

 Displacement from previous Coordinates is:  0.423049
 Adding empirical dispersion correction 
 ----------------------------------------------------------------
 Doing -D3(0) with
 s6  =   1.00000
 s8  =   1.00000
 rs6 =   1.28100
 rs8 =   1.09400
 -D3 energy without 3body term =     -0.0042588022 hartrees
 ----------------------------------------------------------------
             Standard Nuclear Orientation (Angstroms)
    I     Atom           X                Y                Z
 ----------------------------------------------------------------
    1      C       1.1078104139    -0.6883832564    -1.5714536881
    2      C       0.0107169308    -0.1590845511     1.6611060759
    3      C       0.8951000545     0.8230758263     1.6396455692
    4      C       0.1010752082     0.1636828798    -1.6601538949
    5      C      -0.9962675232     0.3733447151    -0.6576514317
    6      C      -0.9811607227    -0.5046694353     0.5888533284
    7      H       1.2522886558    -1.3211174801    -0.7039496359
    8      H       1.8349620099    -0.7750350375    -2.3688389006
    9      H      -0.0408397466    -0.7869020921     2.5475227050
   10      H       1.0076853101     1.4792253628     0.7847862467
   11      H       1.5525080762     0.9977705330     2.4818621694
   12      H       0.0228921727     0.7773083441    -2.5545062702
   13      H      -1.9447840041     0.2109008883    -1.1803674530
   14      H      -1.0138339290     1.4290687953    -0.3623700672
   15      H      -0.8409408362    -1.5523015453     0.2974768653
   16      H      -1.9752580703    -0.4690509468     1.0469003813
 ----------------------------------------------------------------
 Nuclear Repulsion Energy =   223.5859428050 hartrees
 There are       23 alpha and       23 beta electrons
 Applying Cartesian multipole field
    Component          Value
    ---------          -----
     (2,0,0)        1.00000E-11
     (0,2,0)        2.00000E-11
     (0,0,2)       -3.00000E-11
 Nucleus-field energy     =    -0.0000000074 hartrees
 Requested basis set is def2-TZVP
 There are 106 shells and 246 basis functions
 A cutoff of  1.0D-11 yielded   5325 shell pairs
 There are     29421 function pairs (     37252 Cartesian)
 Smallest overlap matrix eigenvalue = 1.04E-04
 Guess MOs from SCF MO coefficient file
 Reading MOs from coefficient file
 Reading MOs from coefficient file

 -----------------------------------------------------------------------
  General SCF calculation program by
  Eric Jon Sundstrom, Paul Horn, Yuezhi Mao, Dmitri Zuev, Alec White,
  David Stuck, Shaama M.S., Shane Yost, Joonho Lee, David Small,
  Daniel Levine, Susi Lehtola, Hugh Burton, Evgeny Epifanovsky
 -----------------------------------------------------------------------
 Exchange:     0.1957 Hartree-Fock + 1.0000 wB97X-D3 + LR-HF
 Correlation:  1.0000 wB97X-D3
 Using SG-2 standard quadrature grid
 Dispersion:   Grimme D3
 using 16 threads for integral computing
 -------------------------------------------------------
 OpenMP Integral computing Module                
 Release: version 1.0, May 2013, Q-Chem Inc. Pittsburgh 
 -------------------------------------------------------
 using 16 threads for integral computing
 -------------------------------------------------------
 OpenMP Integral computing Module                
 Release: version 1.0, May 2013, Q-Chem Inc. Pittsburgh 
 -------------------------------------------------------
 -------------------------------------------------------
 OpenMP BLAS3 based DFT computing Module                
 Release: version 1.0, May 2013, Q-Chem Inc. Pittsburgh 
 -------------------------------------------------------
 A unrestricted SCF calculation will be
 performed using DIIS
 SCF converges when DIIS error is below 1.0e-08
 ---------------------------------------
  Cycle       Energy         DIIS error
 ---------------------------------------
    1    -234.6452708397      5.57e-04  
    2    -234.6241541580      7.00e-05  
    3    -234.6243769880      4.76e-05  
    4    -234.6244505536      1.08e-05  
    5    -234.6244590346      5.12e-06  
    6    -234.6244602354      1.95e-06  
    7    -234.6244604354      3.08e-07  
    8    -234.6244604444      1.09e-07  
    9    -234.6244604449      3.10e-08  
   10    -234.6244604449      4.01e-09  Convergence criterion met
 ---------------------------------------
 SCF time:   CPU 567.04s  wall 36.00s 
<S^2> =          0.000000000
 SCF   energy in the final basis set =     -234.6244604449
 Total energy in the final basis set =     -234.6244604449
 No wavefunction analysis requested
 Calculating analytic gradient of the SCF energy
 Gradient of SCF Energy
            1           2           3           4           5           6
    1  -0.0012132   0.0008835  -0.0011897   0.0010218   0.0006758   0.0006555
    2   0.0009180   0.0012053  -0.0011567  -0.0010311   0.0001660   0.0000307
    3  -0.0001447  -0.0000117   0.0000669   0.0000573  -0.0006286   0.0007905
            7           8           9          10          11          12
    1  -0.0004293  -0.0004007   0.0000151  -0.0003652  -0.0003458   0.0001114
    2   0.0002868   0.0002749   0.0004508  -0.0003273  -0.0003200  -0.0004338
    3  -0.0002413  -0.0000522  -0.0000390   0.0001820   0.0000124   0.0000491
           13          14          15          16
    1   0.0002793   0.0000097   0.0000770   0.0002147
    2  -0.0003603  -0.0000089  -0.0000164   0.0003220
    3  -0.0000717   0.0004296  -0.0004805   0.0000819
 Max gradient component =       1.213E-03
 RMS gradient           =       5.329E-04
 Gradient time:  CPU 149.43 s  wall 9.86 s
 Geometry Optimization Parameters
   NAtoms,    NIC,     NZ,  NCons,   NDum,   NFix, NCnnct, MaxDiis
       16     100       0       0       0       0       0       0

 Cartesian Hessian Update
 Hessian Updated using BFGS Update


** GEOMETRY OPTIMIZATION IN DELOCALIZED INTERNAL COORDINATES **
   Searching for a Minimum

   Optimization Cycle:   2

                       Coordinates (Angstroms)
     ATOM                X               Y               Z
      1  C         1.1078104139   -0.6883832564   -1.5714536881
      2  C         0.0107169308   -0.1590845511    1.6611060759
      3  C         0.8951000545    0.8230758263    1.6396455692
      4  C         0.1010752082    0.1636828798   -1.6601538949
      5  C        -0.9962675232    0.3733447151   -0.6576514317
      6  C        -0.9811607227   -0.5046694353    0.5888533284
      7  H         1.2522886558   -1.3211174801   -0.7039496359
      8  H         1.8349620099   -0.7750350375   -2.3688389006
      9  H        -0.0408397466   -0.7869020921    2.5475227050
     10  H         1.0076853101    1.4792253628    0.7847862467
     11  H         1.5525080762    0.9977705330    2.4818621694
     12  H         0.0228921727    0.7773083441   -2.5545062702
     13  H        -1.9447840041    0.2109008883   -1.1803674530
     14  H        -1.0138339290    1.4290687953   -0.3623700672
     15  H        -0.8409408362   -1.5523015453    0.2974768653
     16  H        -1.9752580703   -0.4690509468    1.0469003813
   Point Group: c1    Number of degrees of freedom:    42


   Energy is   -234.624460445

 Hessian Updated using BFGS Update

 40 Hessian modes will be used to form the next step
  Hessian Eigenvalues:
     0.004780    0.007926    0.008063    0.017246    0.017296    0.030241
     0.030243    0.030255    0.030328    0.036847    0.037260    0.053835
     0.053869    0.101298    0.101712    0.133555    0.133610    0.159894
     0.159981    0.159995    0.161025    0.219639    0.219737    0.220005
     0.220434    0.285612    0.314105    0.315375    0.328354    0.332496
     0.332808    0.332914    0.342391    0.342483    0.347245    0.347587
     0.348444    0.349398    0.570314    0.605341

 Minimum Search - Taking Simple RFO Step
 Searching for Lamda that Minimizes Along All modes
 Value Taken    Lamda =  -0.00013651
 Step Taken.  Stepsize is  0.104389

                             Maximum     Tolerance    Cnvgd?
         Gradient           0.002249      0.000100      NO
         Displacement       0.068180      0.000400      NO
         Energy change     -0.001178      0.000000      NO


 New Cartesian Coordinates Obtained by Inverse Iteration

 Displacement from previous Coordinates is:  0.325326
 Adding empirical dispersion correction 
 ----------------------------------------------------------------
 Doing -D3(0) with
 s6  =   1.00000
 s8  =   1.00000
 rs6 =   1.28100
 rs8 =   1.09400
 -D3 energy without 3body term =     -0.0042777648 hartrees
 ----------------------------------------------------------------
             Standard Nuclear Orientation (Angstroms)
    I     Atom           X                Y                Z
 ----------------------------------------------------------------
    1      C       1.1215270443    -0.6616178026    -1.5299662087
    2      C       0.0108179866    -0.1664065440     1.6442219439
    3      C       0.9147159997     0.7986996816     1.5997680629
    4      C       0.0984901251     0.1695259185    -1.6442163261
    5      C      -1.0174572620     0.3690221194    -0.6599395412
    6      C      -1.0030539117    -0.5030953083     0.5893191873
    7      H       1.2655080689    -1.2829737488    -0.6538834534
    8      H       1.8663596802    -0.7397454625    -2.3116964875
    9      H      -0.0345608327    -0.7913153511     2.5330655897
   10      H       1.0267967749     1.4461813845     0.7380147108
   11      H       1.5920113344     0.9664471743     2.4274539877
   12      H       0.0258669615     0.7790884342    -2.5418465222
   13      H      -1.9590024474     0.1975774484    -1.1918775136
   14      H      -1.0472344148     1.4256883591    -0.3710120534
   15      H      -0.8772481195    -1.5535346932     0.3037303847
   16      H      -1.9915829873    -0.4557086094     1.0577262389
 ----------------------------------------------------------------
 Nuclear Repulsion Energy =   224.1684305839 hartrees
 There are       23 alpha and       23 beta electrons
 Applying Cartesian multipole field
    Component          Value
    ---------          -----
     (2,0,0)        1.00000E-11
     (0,2,0)        2.00000E-11
     (0,0,2)       -3.00000E-11
 Nucleus-field energy     =    -0.0000000071 hartrees
 Requested basis set is def2-TZVP
 There are 106 shells and 246 basis functions
 A cutoff of  1.0D-11 yielded   5340 shell pairs
 There are     29512 function pairs (     37373 Cartesian)
 Smallest overlap matrix eigenvalue = 1.00E-04
 Guess MOs from SCF MO coefficient file
 Reading MOs from coefficient file
 Reading MOs from coefficient file

 -----------------------------------------------------------------------
  General SCF calculation program by
  Eric Jon Sundstrom, Paul Horn, Yuezhi Mao, Dmitri Zuev, Alec White,
  David Stuck, Shaama M.S., Shane Yost, Joonho Lee, David Small,
  Daniel Levine, Susi Lehtola, Hugh Burton, Evgeny Epifanovsky
 -----------------------------------------------------------------------
 Exchange:     0.1957 Hartree-Fock + 1.0000 wB97X-D3 + LR-HF
 Correlation:  1.0000 wB97X-D3
 Using SG-2 standard quadrature grid
 Dispersion:   Grimme D3
 using 16 threads for integral computing
 -------------------------------------------------------
 OpenMP Integral computing Module                
 Release: version 1.0, May 2013, Q-Chem Inc. Pittsburgh 
 -------------------------------------------------------
 using 16 threads for integral computing
 -------------------------------------------------------
 OpenMP Integral computing Module                
 Release: version 1.0, May 2013, Q-Chem Inc. Pittsburgh 
 -------------------------------------------------------
 -------------------------------------------------------
 OpenMP BLAS3 based DFT computing Module                
 Release: version 1.0, May 2013, Q-Chem Inc. Pittsburgh 
 -------------------------------------------------------
 A unrestricted SCF calculation will be
 performed using DIIS
 SCF converges when DIIS error is below 1.0e-08
 ---------------------------------------
  Cycle       Energy         DIIS error
 ---------------------------------------
    1    -234.6234398272      3.71e-04  
    2    -234.6243721274      3.50e-05  
    3    -234.6244615728      1.50e-05  
    4    -234.6244732193      6.99e-06  
    5    -234.6244762641      1.45e-06  
    6    -234.6244764502      5.20e-07  
    7    -234.6244764647      3.00e-07  
    8    -234.6244764682      3.26e-08  
    9    -234.6244764683      1.28e-08  
   10    -234.6244764683      3.66e-09  Convergence criterion met
 ---------------------------------------
 SCF time:   CPU 569.45s  wall 37.00s 
<S^2> =         -0.000000000
 SCF   energy in the final basis set =     -234.6244764683
 Total energy in the final basis set =     -234.6244764683
 No wavefunction analysis requested
 Calculating analytic gradient of the SCF energy
 Gradient of SCF Energy
            1           2           3           4           5           6
    1  -0.0003704   0.0002382  -0.0002482   0.0003394   0.0000666   0.0001178
    2   0.0004567   0.0003867  -0.0005374  -0.0003451   0.0002578  -0.0002470
    3   0.0001099  -0.0002906  -0.0002256   0.0002897  -0.0002728   0.0002759
            7           8           9          10          11          12
    1  -0.0000755  -0.0002553   0.0000608  -0.0000585  -0.0002366   0.0000844
    2   0.0002128   0.0001292   0.0001205  -0.0001899  -0.0001529  -0.0000799
    3   0.0000627   0.0002108  -0.0002411   0.0000149  -0.0001996   0.0002636
           13          14          15          16
    1   0.0001552   0.0000253  -0.0000300   0.0001869
    2   0.0000134  -0.0003832   0.0003727  -0.0000143
    3   0.0001491  -0.0001075   0.0001011  -0.0001405
 Max gradient component =       5.374E-04
 RMS gradient           =       2.316E-04
 Gradient time:  CPU 156.93 s  wall 10.36 s
 Geometry Optimization Parameters
   NAtoms,    NIC,     NZ,  NCons,   NDum,   NFix, NCnnct, MaxDiis
       16     100       0       0       0       0       0       0

 Cartesian Hessian Update
 Hessian Updated using BFGS Update


** GEOMETRY OPTIMIZATION IN DELOCALIZED INTERNAL COORDINATES **
   Searching for a Minimum

   Optimization Cycle:   3

                       Coordinates (Angstroms)
     ATOM                X               Y               Z
      1  C         1.1215270443   -0.6616178026   -1.5299662087
      2  C         0.0108179866   -0.1664065440    1.6442219439
      3  C         0.9147159997    0.7986996816    1.5997680629
      4  C         0.0984901251    0.1695259185   -1.6442163261
      5  C        -1.0174572620    0.3690221194   -0.6599395412
      6  C        -1.0030539117   -0.5030953083    0.5893191873
      7  H         1.2655080689   -1.2829737488   -0.6538834534
      8  H         1.8663596802   -0.7397454625   -2.3116964875
      9  H        -0.0345608327   -0.7913153511    2.5330655897
     10  H         1.0267967749    1.4461813845    0.7380147108
     11  H         1.5920113344    0.9664471743    2.4274539877
     12  H         0.0258669615    0.7790884342   -2.5418465222
     13  H        -1.9590024474    0.1975774484   -1.1918775136
     14  H        -1.0472344148    1.4256883591   -0.3710120534
     15  H        -0.8772481195   -1.5535346932    0.3037303847
     16  H        -1.9915829873   -0.4557086094    1.0577262389
   Point Group: c1    Number of degrees of freedom:    42


   Energy is   -234.624476468

 Hessian Updated using BFGS Update

 41 Hessian modes will be used to form the next step
  Hessian Eigenvalues:
     0.006244    0.007913    0.009657    0.017247    0.018787    0.030238
     0.030244    0.030255    0.030531    0.036845    0.041022    0.053785
     0.053836    0.100304    0.101714    0.133558    0.135886    0.155512
     0.159981    0.159988    0.159999    0.160157    0.217472    0.219684
     0.220004    0.258743    0.287891    0.313822    0.315236    0.328171
     0.332488    0.332808    0.333746    0.340737    0.342391    0.346045
     0.347583    0.348413    0.349100    0.528337    0.570327

 Minimum Search - Taking Simple RFO Step
 Searching for Lamda that Minimizes Along All modes
 Value Taken    Lamda =  -0.00008146
 Step Taken.  Stepsize is  0.064427

                             Maximum     Tolerance    Cnvgd?
         Gradient           0.002553      0.000100      NO
         Displacement       0.043472      0.000400      NO
         Energy change     -0.000016      0.000000      NO


 New Cartesian Coordinates Obtained by Inverse Iteration

 Displacement from previous Coordinates is:  0.195119
 Adding empirical dispersion correction 
 ----------------------------------------------------------------
 Doing -D3(0) with
 s6  =   1.00000
 s8  =   1.00000
 rs6 =   1.28100
 rs8 =   1.09400
 -D3 energy without 3body term =     -0.0042717636 hartrees
 ----------------------------------------------------------------
             Standard Nuclear Orientation (Angstroms)
    I     Atom           X                Y                Z
 ----------------------------------------------------------------
    1      C       1.1146781517    -0.6804972584    -1.5543546876
    2      C       0.0112510953    -0.1620760338     1.6531212388
    3      C       0.9033360558     0.8164860754     1.6237398190
    4      C       0.0999915712     0.1650474067    -1.6531080790
    5      C      -1.0076851578     0.3709640442    -0.6590829854
    6      C      -0.9932703436    -0.5036781118     0.5891490389
    7      H       1.2587691190    -1.3118925482    -0.6850717066
    8      H       1.8521995339    -0.7621161612    -2.3433995066
    9      H      -0.0329508206    -0.7945708768     2.5372714655
   10      H       1.0130931144     1.4738993891     0.7687666889
   11      H       1.5728096141     0.9866863318     2.4579730800
   12      H       0.0265652344     0.7816575073    -2.5464673102
   13      H      -1.9541155595     0.2079011090    -1.1858741926
   14      H      -1.0284970724     1.4278340955    -0.3682074281
   15      H      -0.8590079156    -1.5532241519     0.3022565593
   16      H      -1.9852126201    -0.4645878168     1.0521500053
 ----------------------------------------------------------------
 Nuclear Repulsion Energy =   223.6405080124 hartrees
 There are       23 alpha and       23 beta electrons
 Applying Cartesian multipole field
    Component          Value
    ---------          -----
     (2,0,0)        1.00000E-11
     (0,2,0)        2.00000E-11
     (0,0,2)       -3.00000E-11
 Nucleus-field energy     =    -0.0000000073 hartrees
 Requested basis set is def2-TZVP
 There are 106 shells and 246 basis functions
 A cutoff of  1.0D-11 yielded   5329 shell pairs
 There are     29449 function pairs (     37289 Cartesian)
 Smallest overlap matrix eigenvalue = 1.04E-04
 Guess MOs from SCF MO coefficient file
 Reading MOs from coefficient file
 Reading MOs from coefficient file

 -----------------------------------------------------------------------
  General SCF calculation program by
  Eric Jon Sundstrom, Paul Horn, Yuezhi Mao, Dmitri Zuev, Alec White,
  David Stuck, Shaama M.S., Shane Yost, Joonho Lee, David Small,
  Daniel Levine, Susi Lehtola, Hugh Burton, Evgeny Epifanovsky
 -----------------------------------------------------------------------
 Exchange:     0.1957 Hartree-Fock + 1.0000 wB97X-D3 + LR-HF
 Correlation:  1.0000 wB97X-D3
 Using SG-2 standard quadrature grid
 Dispersion:   Grimme D3
 using 16 threads for integral computing
 -------------------------------------------------------
 OpenMP Integral computing Module                
 Release: version 1.0, May 2013, Q-Chem Inc. Pittsburgh 
 -------------------------------------------------------
 using 16 threads for integral computing
 -------------------------------------------------------
 OpenMP Integral computing Module                
 Release: version 1.0, May 2013, Q-Chem Inc. Pittsburgh 
 -------------------------------------------------------
 -------------------------------------------------------
 OpenMP BLAS3 based DFT computing Module                
 Release: version 1.0, May 2013, Q-Chem Inc. Pittsburgh 
 -------------------------------------------------------
 A unrestricted SCF calculation will be
 performed using DIIS
 SCF converges when DIIS error is below 1.0e-08
 ---------------------------------------
  Cycle       Energy         DIIS error
 ---------------------------------------
    1    -234.6232012711      2.31e-04  
    2    -234.6244698938      2.09e-05  
    3    -234.6245038350      7.50e-06  
    4    -234.6245075589      4.57e-06  
    5    -234.6245085083      1.57e-06  
    6    -234.6245086357      3.56e-07  
    7    -234.6245086433      1.56e-07  
    8    -234.6245086445      2.08e-08  
    9    -234.6245086445      7.15e-09  Convergence criterion met
 ---------------------------------------
 SCF time:   CPU 511.83s  wall 33.00s 
<S^2> =         -0.000000000
 SCF   energy in the final basis set =     -234.6245086445
 Total energy in the final basis set =     -234.6245086445
 No wavefunction analysis requested
 Calculating analytic gradient of the SCF energy
 Gradient of SCF Energy
            1           2           3           4           5           6
    1   0.0006746  -0.0005066   0.0006085  -0.0005457  -0.0000803  -0.0000541
    2  -0.0005527  -0.0004875   0.0006263   0.0004239   0.0001437  -0.0001397
    3   0.0000086   0.0000793   0.0000444  -0.0001042  -0.0001234   0.0001325
            7           8           9          10          11          12
    1   0.0000304   0.0000676  -0.0000323   0.0000172   0.0000517  -0.0000245
    2  -0.0000212  -0.0000039  -0.0000817   0.0000297   0.0000226   0.0000917
    3   0.0000210  -0.0000449   0.0000520  -0.0000490   0.0000619  -0.0000428
           13          14          15          16
    1  -0.0000841  -0.0000245  -0.0000198  -0.0000780
    2   0.0000174  -0.0000168   0.0000079  -0.0000598
    3   0.0000191   0.0000394  -0.0000519  -0.0000420
 Max gradient component =       6.746E-04
 RMS gradient           =       2.355E-04
 Gradient time:  CPU 149.82 s  wall 9.97 s
 Geometry Optimization Parameters
   NAtoms,    NIC,     NZ,  NCons,   NDum,   NFix, NCnnct, MaxDiis
       16     100       0       0       0       0       0       0

 Cartesian Hessian Update
 Hessian Updated using BFGS Update


** GEOMETRY OPTIMIZATION IN DELOCALIZED INTERNAL COORDINATES **
   Searching for a Minimum

   Optimization Cycle:   4

                       Coordinates (Angstroms)
     ATOM                X               Y               Z
      1  C         1.1146781517   -0.6804972584   -1.5543546876
      2  C         0.0112510953   -0.1620760338    1.6531212388
      3  C         0.9033360558    0.8164860754    1.6237398190
      4  C         0.0999915712    0.1650474067   -1.6531080790
      5  C        -1.0076851578    0.3709640442   -0.6590829854
      6  C        -0.9932703436   -0.5036781118    0.5891490389
      7  H         1.2587691190   -1.3118925482   -0.6850717066
      8  H         1.8521995339   -0.7621161612   -2.3433995066
      9  H        -0.0329508206   -0.7945708768    2.5372714655
     10  H         1.0130931144    1.4738993891    0.7687666889
     11  H         1.5728096141    0.9866863318    2.4579730800
     12  H         0.0265652344    0.7816575073   -2.5464673102
     13  H        -1.9541155595    0.2079011090   -1.1858741926
     14  H        -1.0284970724    1.4278340955   -0.3682074281
     15  H        -0.8590079156   -1.5532241519    0.3022565593
     16  H        -1.9852126201   -0.4645878168    1.0521500053
   Point Group: c1    Number of degrees of freedom:    42


   Energy is   -234.624508645

 Hessian Updated using BFGS Update

 42 Hessian modes will be used to form the next step
  Hessian Eigenvalues:
     0.006417    0.007867    0.009720    0.017247    0.018411    0.030239
     0.030245    0.030255    0.030446    0.036846    0.040271    0.053833
     0.054239    0.100071    0.101715    0.133558    0.135420    0.156152
     0.159981    0.159997    0.159999    0.160011    0.160090    0.218086
     0.219678    0.220000    0.257285    0.289165    0.314084    0.326096
     0.332067    0.332495    0.332811    0.334782    0.342121    0.342392
     0.346630    0.347584    0.348386    0.349453    0.570316    0.586410

 Minimum Search - Taking Simple RFO Step
 Searching for Lamda that Minimizes Along All modes
 Value Taken    Lamda =  -0.00000490
 Step Taken.  Stepsize is  0.008994

                             Maximum     Tolerance    Cnvgd?
         Gradient           0.000780      0.000100      NO
         Displacement       0.006025      0.000400      NO
         Energy change     -0.000032      0.000000      NO


 New Cartesian Coordinates Obtained by Inverse Iteration

 Displacement from previous Coordinates is:  0.014377
 Adding empirical dispersion correction 
 ----------------------------------------------------------------
 Doing -D3(0) with
 s6  =   1.00000
 s8  =   1.00000
 rs6 =   1.28100
 rs8 =   1.09400
 -D3 energy without 3body term =     -0.0042710916 hartrees
 ----------------------------------------------------------------
             Standard Nuclear Orientation (Angstroms)
    I     Atom           X                Y                Z
 ----------------------------------------------------------------
    1      C       1.1143502632    -0.6794333766    -1.5523247435
    2      C       0.0121972310    -0.1630364945     1.6517866016
    3      C       0.9029856411     0.8155446836     1.6222301118
    4      C       0.1003259984     0.1654381359    -1.6522745429
    5      C      -1.0076118124     0.3711251345    -0.6590322128
    6      C      -0.9932891751    -0.5034743790     0.5888629387
    7      H       1.2577112138    -1.3102630055    -0.6826066464
    8      H       1.8520629886    -0.7617209287    -2.3409729781
    9      H      -0.0308614465    -0.7958574280     2.5356001858
   10      H       1.0109397479     1.4740474656     0.7680018443
   11      H       1.5731465419     0.9853607675     2.4558376297
   12      H       0.0270923472     0.7808519023    -2.5463193404
   13      H      -1.9533898161     0.2073628073    -1.1865795037
   14      H      -1.0289154679     1.4280926648    -0.3684625176
   15      H      -0.8602726291    -1.5532163733     0.3020384091
   16      H      -1.9845176257    -0.4629885756     1.0530767642
 ----------------------------------------------------------------
 Nuclear Repulsion Energy =   223.7351969704 hartrees
 There are       23 alpha and       23 beta electrons
 Applying Cartesian multipole field
    Component          Value
    ---------          -----
     (2,0,0)        1.00000E-11
     (0,2,0)        2.00000E-11
     (0,0,2)       -3.00000E-11
 Nucleus-field energy     =    -0.0000000073 hartrees
 Requested basis set is def2-TZVP
 There are 106 shells and 246 basis functions
 A cutoff of  1.0D-11 yielded   5329 shell pairs
 There are     29449 function pairs (     37289 Cartesian)
 Smallest overlap matrix eigenvalue = 1.04E-04
 Guess MOs from SCF MO coefficient file
 Reading MOs from coefficient file
 Reading MOs from coefficient file

 -----------------------------------------------------------------------
  General SCF calculation program by
  Eric Jon Sundstrom, Paul Horn, Yuezhi Mao, Dmitri Zuev, Alec White,
  David Stuck, Shaama M.S., Shane Yost, Joonho Lee, David Small,
  Daniel Levine, Susi Lehtola, Hugh Burton, Evgeny Epifanovsky
 -----------------------------------------------------------------------
 Exchange:     0.1957 Hartree-Fock + 1.0000 wB97X-D3 + LR-HF
 Correlation:  1.0000 wB97X-D3
 Using SG-2 standard quadrature grid
 Dispersion:   Grimme D3
 using 16 threads for integral computing
 -------------------------------------------------------
 OpenMP Integral computing Module                
 Release: version 1.0, May 2013, Q-Chem Inc. Pittsburgh 
 -------------------------------------------------------
 using 16 threads for integral computing
 -------------------------------------------------------
 OpenMP Integral computing Module                
 Release: version 1.0, May 2013, Q-Chem Inc. Pittsburgh 
 -------------------------------------------------------
 -------------------------------------------------------
 OpenMP BLAS3 based DFT computing Module                
 Release: version 1.0, May 2013, Q-Chem Inc. Pittsburgh 
 -------------------------------------------------------
 A unrestricted SCF calculation will be
 performed using DIIS
 SCF converges when DIIS error is below 1.0e-08
 ---------------------------------------
  Cycle       Energy         DIIS error
 ---------------------------------------
    1    -234.6247482051      1.71e-05  
    2    -234.6245105323      2.71e-06  
    3    -234.6245107864      1.95e-06  
    4    -234.6245109045      3.67e-07  
    5    -234.6245109139      2.06e-07  
    6    -234.6245109159      6.21e-08  
    7    -234.6245109162      1.14e-08  
    8    -234.6245109162      3.18e-09  Convergence criterion met
 ---------------------------------------
 SCF time:   CPU 454.96s  wall 29.00s 
<S^2> =         -0.000000000
 SCF   energy in the final basis set =     -234.6245109162
 Total energy in the final basis set =     -234.6245109162
 No wavefunction analysis requested
 Calculating analytic gradient of the SCF energy
 Gradient of SCF Energy
            1           2           3           4           5           6
    1  -0.0000397   0.0000263  -0.0000160   0.0000417   0.0000245   0.0000251
    2   0.0000588   0.0000464  -0.0000679  -0.0000359   0.0000237  -0.0000089
    3  -0.0000004  -0.0000257  -0.0000097   0.0000335  -0.0000733   0.0000796
            7           8           9          10          11          12
    1  -0.0000250  -0.0000181  -0.0000159  -0.0000377  -0.0000253   0.0000022
    2   0.0000085   0.0000289   0.0000229  -0.0000087  -0.0000274  -0.0000091
    3  -0.0000051  -0.0000114   0.0000118   0.0000079   0.0000151  -0.0000049
           13          14          15          16
    1   0.0000094   0.0000136   0.0000262   0.0000086
    2  -0.0000087   0.0000037  -0.0000084  -0.0000179
    3  -0.0000014   0.0000184  -0.0000268  -0.0000076
 Max gradient component =       7.960E-05
 RMS gradient           =       2.890E-05
 Gradient time:  CPU 150.16 s  wall 9.85 s
 Geometry Optimization Parameters
   NAtoms,    NIC,     NZ,  NCons,   NDum,   NFix, NCnnct, MaxDiis
       16     100       0       0       0       0       0       0

 Cartesian Hessian Update
 Hessian Updated using BFGS Update


** GEOMETRY OPTIMIZATION IN DELOCALIZED INTERNAL COORDINATES **
   Searching for a Minimum

   Optimization Cycle:   5

                       Coordinates (Angstroms)
     ATOM                X               Y               Z
      1  C         1.1143502632   -0.6794333766   -1.5523247435
      2  C         0.0121972310   -0.1630364945    1.6517866016
      3  C         0.9029856411    0.8155446836    1.6222301118
      4  C         0.1003259984    0.1654381359   -1.6522745429
      5  C        -1.0076118124    0.3711251345   -0.6590322128
      6  C        -0.9932891751   -0.5034743790    0.5888629387
      7  H         1.2577112138   -1.3102630055   -0.6826066464
      8  H         1.8520629886   -0.7617209287   -2.3409729781
      9  H        -0.0308614465   -0.7958574280    2.5356001858
     10  H         1.0109397479    1.4740474656    0.7680018443
     11  H         1.5731465419    0.9853607675    2.4558376297
     12  H         0.0270923472    0.7808519023   -2.5463193404
     13  H        -1.9533898161    0.2073628073   -1.1865795037
     14  H        -1.0289154679    1.4280926648   -0.3684625176
     15  H        -0.8602726291   -1.5532163733    0.3020384091
     16  H        -1.9845176257   -0.4629885756    1.0530767642
   Point Group: c1    Number of degrees of freedom:    42


   Energy is   -234.624510916

 Hessian Updated using BFGS Update

 41 Hessian modes will be used to form the next step
  Hessian Eigenvalues:
     0.005874    0.007679    0.009757    0.017244    0.018597    0.030238
     0.030249    0.030270    0.030698    0.036852    0.040537    0.053826
     0.054451    0.099524    0.101714    0.133541    0.135780    0.157727
     0.159986    0.159998    0.160013    0.160443    0.219391    0.219629
     0.219999    0.256393    0.285546    0.314075    0.326835    0.332479
     0.332799    0.333225    0.334815    0.342373    0.342600    0.347309
     0.347599    0.348399    0.349382    0.570304    0.662660

 Minimum Search - Taking Simple RFO Step
 Searching for Lamda that Minimizes Along All modes
 Value Taken    Lamda =   0.00000000
 Step Taken.  Stepsize is  0.005904

                             Maximum     Tolerance    Cnvgd?
         Gradient           0.000127      0.000100      NO
         Displacement       0.003771      0.000400      NO
         Energy change     -0.000002      0.000000      NO


 New Cartesian Coordinates Obtained by Inverse Iteration

 Displacement from previous Coordinates is:  0.008391
 Adding empirical dispersion correction 
 ----------------------------------------------------------------
 Doing -D3(0) with
 s6  =   1.00000
 s8  =   1.00000
 rs6 =   1.28100
 rs8 =   1.09400
 -D3 energy without 3body term =     -0.0042716954 hartrees
 ----------------------------------------------------------------
             Standard Nuclear Orientation (Angstroms)
    I     Atom           X                Y                Z
 ----------------------------------------------------------------
    1      C       1.1146391409    -0.6792457265    -1.5515293253
    2      C       0.0125241900    -0.1634028069     1.6512145571
    3      C       0.9030342872     0.8155086189     1.6217625143
    4      C       0.1003316515     0.1653127471    -1.6520331030
    5      C      -1.0080347244     0.3710099415    -0.6591523721
    6      C      -0.9938595273    -0.5032463334     0.5888447222
    7      H       1.2580845578    -1.3097564378    -0.6815890166
    8      H       1.8528554572    -0.7614073005    -2.3397308887
    9      H      -0.0294302412    -0.7972291852     2.5343635152
   10      H       1.0103112582     1.4747351662     0.7679999472
   11      H       1.5740770673     0.9847431892     2.4547877719
   12      H       0.0273527128     0.7807465634    -2.5460843172
   13      H      -1.9536621636     0.2070730320    -1.1869161550
   14      H      -1.0296030494     1.4280553440    -0.3689197307
   15      H      -0.8618437438    -1.5531662553     0.3022779571
   16      H      -1.9848228733    -0.4618975568     1.0535659234
 ----------------------------------------------------------------
 Nuclear Repulsion Energy =   223.7401785341 hartrees
 There are       23 alpha and       23 beta electrons
 Applying Cartesian multipole field
    Component          Value
    ---------          -----
     (2,0,0)        1.00000E-11
     (0,2,0)        2.00000E-11
     (0,0,2)       -3.00000E-11
 Nucleus-field energy     =    -0.0000000073 hartrees
 Requested basis set is def2-TZVP
 There are 106 shells and 246 basis functions
 A cutoff of  1.0D-11 yielded   5329 shell pairs
 There are     29449 function pairs (     37289 Cartesian)
 Smallest overlap matrix eigenvalue = 1.04E-04
 Guess MOs from SCF MO coefficient file
 Reading MOs from coefficient file
 Reading MOs from coefficient file

 -----------------------------------------------------------------------
  General SCF calculation program by
  Eric Jon Sundstrom, Paul Horn, Yuezhi Mao, Dmitri Zuev, Alec White,
  David Stuck, Shaama M.S., Shane Yost, Joonho Lee, David Small,
  Daniel Levine, Susi Lehtola, Hugh Burton, Evgeny Epifanovsky
 -----------------------------------------------------------------------
 Exchange:     0.1957 Hartree-Fock + 1.0000 wB97X-D3 + LR-HF
 Correlation:  1.0000 wB97X-D3
 Using SG-2 standard quadrature grid
 Dispersion:   Grimme D3
 using 16 threads for integral computing
 -------------------------------------------------------
 OpenMP Integral computing Module                
 Release: version 1.0, May 2013, Q-Chem Inc. Pittsburgh 
 -------------------------------------------------------
 using 16 threads for integral computing
 -------------------------------------------------------
 OpenMP Integral computing Module                
 Release: version 1.0, May 2013, Q-Chem Inc. Pittsburgh 
 -------------------------------------------------------
 -------------------------------------------------------
 OpenMP BLAS3 based DFT computing Module                
 Release: version 1.0, May 2013, Q-Chem Inc. Pittsburgh 
 -------------------------------------------------------
 A unrestricted SCF calculation will be
 performed using DIIS
 SCF converges when DIIS error is below 1.0e-08
 ---------------------------------------
  Cycle       Energy         DIIS error
 ---------------------------------------
    1    -234.6245431452      7.60e-06  
    2    -234.6245110370      1.01e-06  
    3    -234.6245111350      3.51e-07  
    4    -234.6245111475      1.84e-07  
    5    -234.6245111494      6.54e-08  
    6    -234.6245111497      1.92e-08  
    7    -234.6245111497      8.11e-09  Convergence criterion met
 ---------------------------------------
 SCF time:   CPU 397.62s  wall 26.00s 
<S^2> =          0.000000000
 SCF   energy in the final basis set =     -234.6245111497
 Total energy in the final basis set =     -234.6245111497
 No wavefunction analysis requested
 Calculating analytic gradient of the SCF energy
 Gradient of SCF Energy
            1           2           3           4           5           6
    1  -0.0000105  -0.0000005  -0.0000006   0.0000113  -0.0000038  -0.0000049
    2   0.0000201   0.0000200  -0.0000228  -0.0000146   0.0000055  -0.0000004
    3  -0.0000053  -0.0000050  -0.0000013   0.0000042  -0.0000112   0.0000140
            7           8           9          10          11          12
    1   0.0000008   0.0000001  -0.0000066  -0.0000122  -0.0000085   0.0000042
    2   0.0000108   0.0000194   0.0000021  -0.0000057  -0.0000159   0.0000064
    3  -0.0000027   0.0000020   0.0000001   0.0000085   0.0000034   0.0000047
           13          14          15          16
    1   0.0000061   0.0000039   0.0000132   0.0000081
    2   0.0000027  -0.0000033  -0.0000018  -0.0000224
    3   0.0000020   0.0000089  -0.0000136  -0.0000087
 Max gradient component =       2.282E-05
 RMS gradient           =       9.813E-06
 Gradient time:  CPU 150.14 s  wall 9.91 s
 Geometry Optimization Parameters
   NAtoms,    NIC,     NZ,  NCons,   NDum,   NFix, NCnnct, MaxDiis
       16     100       0       0       0       0       0       0

 Cartesian Hessian Update
 Hessian Updated using BFGS Update


** GEOMETRY OPTIMIZATION IN DELOCALIZED INTERNAL COORDINATES **
   Searching for a Minimum

   Optimization Cycle:   6

                       Coordinates (Angstroms)
     ATOM                X               Y               Z
      1  C         1.1146391409   -0.6792457265   -1.5515293253
      2  C         0.0125241900   -0.1634028069    1.6512145571
      3  C         0.9030342872    0.8155086189    1.6217625143
      4  C         0.1003316515    0.1653127471   -1.6520331030
      5  C        -1.0080347244    0.3710099415   -0.6591523721
      6  C        -0.9938595273   -0.5032463334    0.5888447222
      7  H         1.2580845578   -1.3097564378   -0.6815890166
      8  H         1.8528554572   -0.7614073005   -2.3397308887
      9  H        -0.0294302412   -0.7972291852    2.5343635152
     10  H         1.0103112582    1.4747351662    0.7679999472
     11  H         1.5740770673    0.9847431892    2.4547877719
     12  H         0.0273527128    0.7807465634   -2.5460843172
     13  H        -1.9536621636    0.2070730320   -1.1869161550
     14  H        -1.0296030494    1.4280553440   -0.3689197307
     15  H        -0.8618437438   -1.5531662553    0.3022779571
     16  H        -1.9848228733   -0.4618975568    1.0535659234
   Point Group: c1    Number of degrees of freedom:    42


   Energy is   -234.624511150

 Hessian Updated using BFGS Update

 42 Hessian modes will be used to form the next step
  Hessian Eigenvalues:
     0.003460    0.007393    0.009783    0.017233    0.019977    0.030063
     0.030244    0.030264    0.031914    0.036841    0.043611    0.053796
     0.054403    0.099484    0.101730    0.133505    0.136338    0.156573
     0.159946    0.159990    0.160001    0.160019    0.160265    0.219467
     0.219989    0.221271    0.259939    0.290659    0.314157    0.327542
     0.332253    0.332515    0.332815    0.334571    0.342270    0.342403
     0.346814    0.347586    0.348379    0.349412    0.570305    0.645196

 Minimum Search - Taking Simple RFO Step
 Searching for Lamda that Minimizes Along All modes
 Value Taken    Lamda =   0.00000000
 Step Taken.  Stepsize is  0.006105

                             Maximum     Tolerance    Cnvgd?
         Gradient           0.000033      0.000100     YES
         Displacement       0.003879      0.000400      NO
         Energy change     -0.000000      0.000000     YES

 Final energy is   -234.624511149685     


 ******************************
 **  OPTIMIZATION CONVERGED  **
 ******************************

                       Coordinates (Angstroms)
     ATOM                X               Y               Z
      1  C         1.1146391409   -0.6792457265   -1.5515293253
      2  C         0.0125241900   -0.1634028069    1.6512145571
      3  C         0.9030342872    0.8155086189    1.6217625143
      4  C         0.1003316515    0.1653127471   -1.6520331030
      5  C        -1.0080347244    0.3710099415   -0.6591523721
      6  C        -0.9938595273   -0.5032463334    0.5888447222
      7  H         1.2580845578   -1.3097564378   -0.6815890166
      8  H         1.8528554572   -0.7614073005   -2.3397308887
      9  H        -0.0294302412   -0.7972291852    2.5343635152
     10  H         1.0103112582    1.4747351662    0.7679999472
     11  H         1.5740770673    0.9847431892    2.4547877719
     12  H         0.0273527128    0.7807465634   -2.5460843172
     13  H        -1.9536621636    0.2070730320   -1.1869161550
     14  H        -1.0296030494    1.4280553440   -0.3689197307
     15  H        -0.8618437438   -1.5531662553    0.3022779571
     16  H        -1.9848228733   -0.4618975568    1.0535659234

Z-matrix Print:
$molecule
0 1
C 
H  1 1.095272
H  1 1.096378 2 104.766437
C  1 1.502198 2 107.340059 3 -115.506308 0
H  4 1.087848 1 114.597505 2 55.362629 0
C  4 1.323707 1 127.052991 2 -123.734946 0
H  6 1.083040 4 121.026985 1 178.794889 0
H  6 1.083936 4 122.240376 1 -2.003519 0
C  1 1.523818 2 108.469202 3 117.061943 0
H  9 1.095301 1 108.506525 2 -41.697404 0
H  9 1.096303 1 109.663424 2 72.274787 0
C  9 1.502309 1 117.103818 2 -163.280921 0
H  12 1.087864 9 114.610639 1 178.535143 0
C  12 1.323685 9 127.029688 1 -0.428280 0
H  14 1.082991 12 121.017451 9 178.868191 0
H  14 1.083973 12 122.266492 9 -2.053973 0
$end

 No wavefunction analysis requested
Archival summary:
1\1\nid00509\OPT\ProcedureUnspecified\BasisUnspecified\610\cgrambow\FriFeb1503:52:012019FriFeb1503:52:012019\0\\#,OPT,ProcedureUnspecified,BasisUnspecified,\\0,1\C\H,1,1.09527\H,1,1.09638,2,104.766\C,1,1.5022,2,107.34,3,-115.506,0\H,4,1.08785,1,114.598,2,55.3626,0\C,4,1.32371,1,127.053,2,-123.735,0\H,6,1.08304,4,121.027,1,178.795,0\H,6,1.08394,4,122.24,1,-2.00352,0\C,1,1.52382,2,108.469,3,117.062,0\H,9,1.0953,1,108.507,2,-41.6974,0\H,9,1.0963,1,109.663,2,72.2748,0\C,9,1.50231,1,117.104,2,-163.281,0\H,12,1.08786,9,114.611,1,178.535,0\C,12,1.32369,9,127.03,1,-0.42828,0\H,14,1.08299,12,121.017,9,178.868,0\H,14,1.08397,12,122.266,9,-2.05397,0\\\@

 Total job time:  267.32s(wall), 4097.66s(cpu) 
 Fri Feb 15 03:52:01 2019

        *************************************************************
        *                                                           *
        *  Thank you very much for using Q-Chem.  Have a nice day.  *
        *                                                           *
        *************************************************************



Running Job 2 of 2 prod_optfreq0153.in
qchem prod_optfreq0153.in_11554.1 /tmp/qchem11554/ 1
/global/common/cori/software/qchem/5.1/exe/qcprog.exe prod_optfreq0153.in_11554.1 /tmp/qchem11554/
Check license passed

                  Welcome to Q-Chem
     A Quantum Leap Into The Future Of Chemistry


 Q-Chem 5.1, Q-Chem, Inc., Pleasanton, CA (2018)

 Yihan Shao,  Zhengting Gan,  E. Epifanovsky,  A. T. B. Gilbert,  M. Wormit,  
 J. Kussmann,  A. W. Lange,  A. Behn,  Jia Deng,  Xintian Feng,  D. Ghosh,  
 M. Goldey,  P. R. Horn,  L. D. Jacobson,  I. Kaliman,  T. Kus,  A. Landau,  
 Jie Liu,  E. I. Proynov,  R. M. Richard,  R. P. Steele,  E. J. Sundstrom,  
 H. L. Woodcock III,  P. M. Zimmerman,  D. Zuev,  B. Albrecht,  E. Alguire,  
 S. A. Baeppler,  D. Barton,  Z. Benda,  Y. A. Bernard,  E. J. Berquist,  
 K. B. Bravaya,  H. Burton,  D. Casanova,  Chun-Min Chang,  Yunqing Chen,  
 A. Chien,  K. D. Closser,  M. P. Coons,  S. Coriani,  S. Dasgupta,  
 A. L. Dempwolff,  M. Diedenhofen,  Hainam Do,  R. G. Edgar,  Po-Tung Fang,  
 S. Faraji,  S. Fatehi,  Qingguo Feng,  K. D. Fenk,  J. Fosso-Tande,  
 Qinghui Ge,  A. Ghysels,  G. Gidofalvi,  J. Gomes,  J. Gonthier,  A. Gunina,  
 D. Hait,  M. W. D. Hanson-Heine,  P. H. P. Harbach,  A. W. Hauser,  
 J. E. Herr,  E. G. Hohenstein,  Z. C. Holden,  Kerwin Hui,  B. C. Huynh,  
 T.-C. Jagau,  Hyunjun Ji,  B. Kaduk,  K. Khistyaev,  Jaehoon Kim,  
 P. Klunzinger,  K. Koh,  D. Kosenkov,  L. Koulias,  T. Kowalczyk,  
 C. M. Krauter,  A. Kunitsa,  Ka Un Lao,  A. Laurent,  K. V. Lawler,  
 Joonho Lee,  D. Lefrancois,  S. Lehtola,  D. S. Levine,  Yi-Pei Li,  
 You-Sheng Lin,  Fenglai Liu,  E. Livshits,  A. Luenser,  P. Manohar,  
 E. Mansoor,  S. F. Manzer,  Shan-Ping Mao,  Yuezhi Mao,  N. Mardirossian,  
 A. V. Marenich,  T. Markovich,  L. A. Martinez-Martinez,  S. A. Maurer,  
 N. J. Mayhall,  S. C. McKenzie,  J.-M. Mewes,  A. F. Morrison,  
 J. W. Mullinax,  K. Nanda,  T. S. Nguyen-Beck,  R. Olivares-Amaya,  
 J. A. Parkhill,  T. M. Perrine,  F. Plasser,  P. Pokhilko,  S. Prager,  
 A. Prociuk,  E. Ramos,  D. R. Rehn,  F. Rob,  M. Schneider,  N. Sergueev,  
 S. M. Sharada,  S. Sharma,  D. W. Small,  T. Stauch,  T. Stein,  
 Yu-Chuan Su,  A. J. W. Thom,  A. Tkatchenko,  T. Tsuchimochi,  N. M. Tubman,  
 L. Vogt,  M. L. Vidal,  O. Vydrov,  M. A. Watson,  J. Wenzel,  
 M. de Wergifosse,  T. A. Wesolowski,  A. White,  J. Witte,  A. Yamada,  
 Jun Yang,  K. Yao,  S. Yeganeh,  S. R. Yost,  Zhi-Qiang You,  A. Zech,  
 Igor Ying Zhang,  Xing Zhang,  Yan Zhao,  Ying Zhu,  B. R. Brooks,  
 G. K. L. Chan,  C. J. Cramer,  M. S. Gordon,  W. J. Hehre,  A. Klamt,  
 M. W. Schmidt,  C. D. Sherrill,  D. G. Truhlar,  A. Aspuru-Guzik,  R. Baer,  
 A. T. Bell,  N. A. Besley,  Jeng-Da Chai,  R. A. DiStasio Jr.,  A. Dreuw,  
 B. D. Dunietz,  T. R. Furlani,  Chao-Ping Hsu,  Yousung Jung,  Jing Kong,  
 D. S. Lambrecht,  WanZhen Liang,  C. Ochsenfeld,  V. A. Rassolov,  
 L. V. Slipchenko,  J. E. Subotnik,  T. Van Voorhis,  J. M. Herbert,  
 A. I. Krylov,  P. M. W. Gill,  M. Head-Gordon

 Contributors to earlier versions of Q-Chem not listed above: 
 R. D. Adamson,  B. Austin,  J. Baker,  G. J. O. Beran,  K. Brandhorst,  
 S. T. Brown,  E. F. C. Byrd,  A. K. Chakraborty,  C.-L. Cheng,  
 Siu Hung Chien,  D. M. Chipman,  D. L. Crittenden,  H. Dachsel,  
 R. J. Doerksen,  A. D. Dutoi,  L. Fusti-Molnar,  W. A. Goddard III,  
 A. Golubeva-Zadorozhnaya,  S. R. Gwaltney,  G. Hawkins,  A. Heyden,  
 S. Hirata,  G. Kedziora,  F. J. Keil,  C. Kelley,  Jihan Kim,  R. A. King,  
 R. Z. Khaliullin,  P. P. Korambath,  W. Kurlancheek,  A. M. Lee,  M. S. Lee,  
 S. V. Levchenko,  Ching Yeh Lin,  D. Liotard,  R. C. Lochan,  I. Lotan,  
 P. E. Maslen,  N. Nair,  D. P. O'Neill,  D. Neuhauser,  E. Neuscamman,  
 C. M. Oana,  R. Olson,  B. Peters,  R. Peverati,  P. A. Pieniazek,  
 Y. M. Rhee,  J. Ritchie,  M. A. Rohrdanz,  E. Rosta,  N. J. Russ,  
 H. F. Schaefer III,  N. E. Schultz,  N. Shenvi,  A. C. Simmonett,  A. Sodt,  
 D. Stuck,  K. S. Thanthiriwatte,  V. Vanovschi,  Tao Wang,  A. Warshel,  
 C. F. Williams,  Q. Wu,  X. Xu,  W. Zhang

 Please cite Q-Chem as follows:
 Y. Shao et al., Mol. Phys. 113, 184-215 (2015)
 DOI: 10.1080/00268976.2014.952696

 Q-Chem 5.1.0 for Intel X86 EM64T Linux

 Parts of Q-Chem use Armadillo 8.300.2 (Tropical Shenanigans).
 http://arma.sourceforge.net/

 Q-Chem begins on Fri Feb 15 03:52:01 2019  

Host: cori05
0

     Scratch files written to /tmp/qchem11554//
 Jun2518 |scratch|qcdevops|jenkins|workspace|build_RNUM -1
Processing $rem in /global/common/cori/software/qchem/5.1/config/preferences.
 MEM_TOTAL  96000 
The previous job contains 0 fragments, simply inherited here

Checking the input file for inconsistencies... 	...done.

--------------------------------------------------------------
User input:
--------------------------------------------------------------

$molecule
read
$end

$rem
JOBTYPE                   FREQ
METHOD                    wB97X-D3
BASIS                     def2-TZVP
UNRESTRICTED              TRUE
SCF_GUESS                 READ
SCF_ALGORITHM             DIIS
MAX_SCF_CYCLES            100
SCF_CONVERGENCE           8
SYM_IGNORE                TRUE
SYMMETRY                  FALSE
WAVEFUNCTION_ANALYSIS     FALSE
$end
--------------------------------------------------------------
 Adding empirical dispersion correction 
 ----------------------------------------------------------------
 Doing -D3(0) with
 s6  =   1.00000
 s8  =   1.00000
 rs6 =   1.28100
 rs8 =   1.09400
 -D3 energy without 3body term =     -0.0042716954 hartrees
 ----------------------------------------------------------------
             Standard Nuclear Orientation (Angstroms)
    I     Atom           X                Y                Z
 ----------------------------------------------------------------
    1      C       1.1146391409    -0.6792457265    -1.5515293253
    2      C       0.0125241900    -0.1634028069     1.6512145571
    3      C       0.9030342872     0.8155086189     1.6217625143
    4      C       0.1003316515     0.1653127471    -1.6520331030
    5      C      -1.0080347244     0.3710099415    -0.6591523721
    6      C      -0.9938595273    -0.5032463334     0.5888447222
    7      H       1.2580845578    -1.3097564378    -0.6815890166
    8      H       1.8528554572    -0.7614073005    -2.3397308887
    9      H      -0.0294302412    -0.7972291852     2.5343635152
   10      H       1.0103112582     1.4747351662     0.7679999472
   11      H       1.5740770673     0.9847431892     2.4547877719
   12      H       0.0273527128     0.7807465634    -2.5460843172
   13      H      -1.9536621636     0.2070730320    -1.1869161550
   14      H      -1.0296030494     1.4280553440    -0.3689197307
   15      H      -0.8618437438    -1.5531662553     0.3022779571
   16      H      -1.9848228733    -0.4618975568     1.0535659234
 ----------------------------------------------------------------
 Nuclear Repulsion Energy =   223.7401785341 hartrees
 There are       23 alpha and       23 beta electrons
 Requested basis set is def2-TZVP
 There are 106 shells and 246 basis functions

 Total QAlloc Memory Limit  96000 MB
 Mega-Array Size       188 MB
 MEM_STATIC part       192 MB
 A cutoff of  1.0D-11 yielded   5329 shell pairs
 There are     29449 function pairs (     37289 Cartesian)
 
 -------------------------------------------------------
 OpenMP Integral Computing Module                       
 Release: version 1.0, May 2013, Q-Chem Inc. Pittsburgh 
 -------------------------------------------------------
 Integral Job Info:
 Integral job number is                      11
 Integral operator is                         1
 short-range coefficients              19572800
 long-range coefficients              100000000
 Omega coefficients                         250
 if combine SR and LR in K                    1
 Integral screening is                        0
 Integral computing path is                   2
 max size of driver memory is            800000
 size of driver memory is                776718
 size of scratch memory is              4473992
 max col of scratch BK array              10000
 max len of scratch array in speh3          662
 max len of scratch index in speh4           32
 max int batch size is                      520
 min int batch size is                       52
 fixed nKL is                                52
 max L of basis functions is                  3
 order of int derivative is                   0
 number of shells is                        106
 number of basis is                         276
 number of cartesian basis is               276
 number of contracted shell pairs          5329
 number of primitive shell pairs          11946
 maxK2 (contraction) of shell pair           36
 max number of K2 of shell pair               1
 max number of CS2 of shell pair            874
 max number of PS2 of shell pair           1548
 mem total for path MDJ                  587568
 -------------------------------------------------------
 Smallest overlap matrix eigenvalue = 1.04E-04

 -----------------------------------------------------------------------
  General SCF calculation program by
  Eric Jon Sundstrom, Paul Horn, Yuezhi Mao, Dmitri Zuev, Alec White,
  David Stuck, Shaama M.S., Shane Yost, Joonho Lee, David Small,
  Daniel Levine, Susi Lehtola, Hugh Burton, Evgeny Epifanovsky
 -----------------------------------------------------------------------
 Exchange:     0.1957 Hartree-Fock + 1.0000 wB97X-D3 + LR-HF
 Correlation:  1.0000 wB97X-D3
 Using SG-2 standard quadrature grid
 Dispersion:   Grimme D3
 using 16 threads for integral computing
 -------------------------------------------------------
 OpenMP Integral computing Module                
 Release: version 1.0, May 2013, Q-Chem Inc. Pittsburgh 
 -------------------------------------------------------
 using 16 threads for integral computing
 -------------------------------------------------------
 OpenMP Integral computing Module                
 Release: version 1.0, May 2013, Q-Chem Inc. Pittsburgh 
 -------------------------------------------------------
 -------------------------------------------------------
 OpenMP BLAS3 based DFT computing Module                
 Release: version 1.0, May 2013, Q-Chem Inc. Pittsburgh 
 -------------------------------------------------------
 A unrestricted SCF calculation will be
 performed using DIIS
 SCF converges when DIIS error is below 1.0e-08
 ---------------------------------------
  Cycle       Energy         DIIS error
 ---------------------------------------
    1    -234.6245111497      1.22e-09  
    2    -234.6245111497      8.16e-10  Convergence criterion met
 ---------------------------------------
 SCF time:   CPU 114.67s  wall 8.00s 
<S^2> =          0.000000000
 SCF   energy in the final basis set =     -234.6245111497
 Total energy in the final basis set =     -234.6245111497
 No wavefunction analysis requested
 Calculating MO derivatives via CPSCF
 D1JvT checksum  = 2308608 52480.2450703487
 D1KAT checksum  = 4753152 4734.4063788921
 D1JvT checksum  = 2308608 36135.1072623866
 D1KAT checksum  = 4753152 2171.8495107364
   1         3          48      0.247420    0.022779
   2         3          48      0.039809    0.005200
   3         3          48      0.005162    0.000668
   4         3          48      0.000645    0.000098
   5        30          21      0.000053    0.000010
   6        50           1      0.000001    0.000001
   7        51           0      0.000000    0.000000    Roots Converged
 Time for AOints: 534.2 s (CPU) 35.6 s (wall)
 ------------------------------------------------------------------------------
                     AOints        : Timing summary (seconds)
 ------------------------------------------------------------------------------
     job step          cpu (% of tot)      sys (% of tot)     wall (% of tot)
 ------------------------------------------------------------------------------
  cpscf_lag         0.2531E+04 (34.5)   0.1498E-02 (28.3)   0.6664E+03 (41.3)
  iterzp            0.4276E+04 (58.2)   0.3290E-02 (62.2)   0.9120E+03 (56.5)
  make_fx           0.0000E+00 ( 0.0)   0.0000E+00 ( 0.0)   0.0000E+00 ( 0.0)
  AOints            0.5342E+03 ( 7.3)   0.4890E-03 ( 9.2)   0.3562E+02 ( 2.2)
 ------------------------------------------------------------------------------
   Grand Totals     0.7342E+04          0.5287E-02          0.1615E+04
 ------------------------------------------------------------------------------
 Calculating analytic Hessian of the SCF energy
 Polarizability Matrix (a.u.)
            1           2           3
    1 -73.5690177  -0.4884979  -0.2448777
    2  -0.4884979 -66.0816335   0.3274073
    3  -0.2448777   0.3274073 -69.0430083
 Running MAKENN_D3_FD2ND
 
 Direct stationary perturbation theory relativistic correction:
 
 rels  =       0.053085894435
 relv  =      -0.254289549245
 rel2e =       0.000000000000
 E_rel =      -0.201203654810
 
 Hessian of the SCF Energy
            1           2           3           4           5           6
    1   0.6245876  -0.3228868  -0.1147961  -0.0007267  -0.0007464  -0.0008018
    2  -0.3228868   0.4672296  -0.1774063   0.0002822  -0.0001691  -0.0001826
    3  -0.1147961  -0.1774063   0.5499894  -0.0003493  -0.0002631  -0.0009864
    4  -0.0007267   0.0002822  -0.0003493   0.5153951   0.3216119   0.0896123
    5  -0.0007464  -0.0001691  -0.0002631   0.3216119   0.5976435  -0.1426674
    6  -0.0008018  -0.0001826  -0.0009864   0.0896123  -0.1426674   0.5122342
    7   0.0009495   0.0005781   0.0002683  -0.2983183  -0.2587137  -0.0056507
    8  -0.0003861  -0.0001025  -0.0003727  -0.2559991  -0.3498215   0.0287284
    9  -0.0000906  -0.0003943  -0.0011753  -0.0092150   0.0253582  -0.1059813
   10  -0.3693054   0.2512160  -0.0135265   0.0013406   0.0010213   0.0000260
   11   0.2539318  -0.2773012   0.0435388  -0.0007516  -0.0002263  -0.0008882
   12  -0.0174449   0.0459880  -0.1066322   0.0001805  -0.0007635  -0.0000550
   13  -0.0181434   0.0083351   0.0183045   0.0010521   0.0162517  -0.0201956
   14   0.0190251   0.0025936  -0.0135141   0.0049164   0.0068304  -0.0041216
   15   0.0026239  -0.0012850   0.0087381  -0.0028946   0.0133243  -0.0213122
   16   0.0002251  -0.0009688   0.0002336  -0.1404459  -0.0257657  -0.0663842
   17   0.0005014   0.0000074  -0.0017572  -0.0233716  -0.0902052  -0.0128877
   18  -0.0015817  -0.0001855   0.0011930  -0.0657640  -0.0151214  -0.1582002
   19  -0.0560965   0.0267688  -0.0216295   0.0003358   0.0003357   0.0008590
   20   0.0277868  -0.1401931   0.1364944   0.0002977   0.0004350  -0.0003509
   21  -0.0248985   0.1402846  -0.2380702   0.0008041  -0.0003184  -0.0006546
   22  -0.1801087   0.0213255   0.1464319  -0.0000884  -0.0001416  -0.0000813
   23   0.0189320  -0.0460582  -0.0052801  -0.0000640   0.0000496  -0.0001292
   24   0.1506099  -0.0084302  -0.2095199   0.0000777  -0.0002219   0.0001336
   25   0.0000872  -0.0000151  -0.0000411  -0.0510214  -0.0099457   0.0026854
   26   0.0001731  -0.0000325   0.0000201  -0.0115024  -0.1428593   0.1310729
   27   0.0002107  -0.0000930  -0.0000778   0.0051509   0.1340123  -0.2360810
   28  -0.0003424   0.0000543   0.0000799   0.0043396  -0.0137684   0.0178657
   29   0.0005191  -0.0000923   0.0002849  -0.0025850  -0.0099279   0.0208869
   30   0.0000518  -0.0000695  -0.0000616  -0.0006616   0.0009766   0.0037868
   31   0.0000392   0.0000045   0.0001484  -0.0098397  -0.0027448  -0.0184438
   32   0.0001950  -0.0000056  -0.0000583  -0.0169291  -0.0005497  -0.0200485
   33  -0.0000605   0.0000046  -0.0002252   0.0028277   0.0030463   0.0040631
   34   0.0011886   0.0178502  -0.0213856  -0.0003581  -0.0002977   0.0000827
   35   0.0031054  -0.0075858   0.0203567  -0.0000147   0.0000797   0.0002195
   36   0.0025414   0.0019765   0.0009897   0.0002755   0.0001633   0.0005173
   37  -0.0008975  -0.0009574   0.0034357   0.0010750   0.0001264   0.0002930
   38   0.0001815   0.0003197  -0.0008252  -0.0011855  -0.0029487   0.0020787
   39   0.0015716  -0.0007573  -0.0020033   0.0008981   0.0045270  -0.0031960
   40  -0.0016566  -0.0011084   0.0026071   0.0001005   0.0005070   0.0000731
   41  -0.0006704   0.0009616  -0.0013535  -0.0009487   0.0006803  -0.0014068
   42   0.0014608   0.0006216  -0.0019897   0.0004488   0.0002321   0.0012831
   43   0.0000244  -0.0005397   0.0004691   0.0007933  -0.0261845  -0.0077722
   44   0.0000054   0.0003562   0.0002181  -0.0017186  -0.0079576  -0.0027138
   45   0.0008712  -0.0003314  -0.0000829   0.0025336  -0.0228543  -0.0059486
   46   0.0001756   0.0000616  -0.0002504  -0.0236333  -0.0015454   0.0078325
   47   0.0003331   0.0000723  -0.0000825  -0.0120378  -0.0010531   0.0024103
   48  -0.0002672   0.0002599  -0.0000858  -0.0239248   0.0005699   0.0103972
            7           8           9          10          11          12
    1   0.0009495  -0.0003861  -0.0000906  -0.3693054   0.2539318  -0.0174449
    2   0.0005781  -0.0001025  -0.0003943   0.2512160  -0.2773012   0.0459880
    3   0.0002683  -0.0003727  -0.0011753  -0.0135265   0.0435388  -0.1066322
    4  -0.2983183  -0.2559991  -0.0092150   0.0013406  -0.0007516   0.0001805
    5  -0.2587137  -0.3498215   0.0253582   0.0010213  -0.0002263  -0.0007635
    6  -0.0056507   0.0287284  -0.1059813   0.0000260  -0.0008882  -0.0000550
    7   0.5161296   0.3383847   0.1423357  -0.0008677   0.0006808   0.0008415
    8   0.3383847   0.5653624  -0.1398897  -0.0004088  -0.0001095  -0.0001412
    9   0.1423357  -0.1398897   0.5622030   0.0003751  -0.0002023  -0.0010364
   10  -0.0008677  -0.0004088   0.0003751   0.6138744  -0.3108227  -0.0597085
   11   0.0006808  -0.0001095  -0.0002023  -0.3108227   0.5060109  -0.1732832
   12   0.0008415  -0.0001412  -0.0010364  -0.0597085  -0.1732832   0.5055790
   13  -0.0000476   0.0009755  -0.0001171  -0.1555649   0.0183829   0.0677480
   14  -0.0003705   0.0000851  -0.0018152   0.0159434  -0.0859469  -0.0030266
   15   0.0014435   0.0000574   0.0012554   0.0671473  -0.0053327  -0.1500070
   16  -0.0128951  -0.0102734  -0.0177729   0.0023508  -0.0174954   0.0221075
   17  -0.0202834  -0.0011788  -0.0172922  -0.0051379   0.0040465  -0.0020287
   18  -0.0040837  -0.0024530   0.0071154   0.0027269   0.0124926  -0.0197051
   19  -0.0002870  -0.0000128  -0.0000087   0.0029720   0.0151909  -0.0208956
   20  -0.0004991  -0.0002215   0.0001730   0.0031576  -0.0072618   0.0187983
   21   0.0000343  -0.0001946  -0.0002865   0.0005458   0.0022733   0.0020893
   22   0.0000761   0.0000080  -0.0001231  -0.0134338   0.0011320   0.0199110
   23  -0.0001820  -0.0000312  -0.0000945   0.0162529   0.0018518  -0.0162451
   24   0.0000930   0.0000185  -0.0002319  -0.0044885   0.0027216   0.0052454
   25   0.0029435  -0.0166217   0.0181555  -0.0003566   0.0002292  -0.0001714
   26  -0.0028814  -0.0107037   0.0227933  -0.0000498   0.0000940   0.0002004
   27  -0.0027230   0.0003882   0.0023656  -0.0003460   0.0001321   0.0005007
   28  -0.0512746  -0.0231684   0.0140604   0.0005062  -0.0002597  -0.0006639
   29  -0.0238687  -0.1512769   0.1386268  -0.0003413   0.0005982  -0.0003016
   30   0.0165828   0.1428152  -0.2318313  -0.0006249  -0.0002136  -0.0003779
   31  -0.1545198  -0.0347216  -0.1418636  -0.0001092   0.0001326   0.0000898
   32  -0.0324158  -0.0539060  -0.0244587   0.0000519   0.0000737  -0.0001161
   33  -0.1454990  -0.0283495  -0.2274985  -0.0000784  -0.0002097   0.0001358
   34   0.0001182   0.0000417   0.0000506  -0.0533106   0.0136248  -0.0093394
   35  -0.0001630  -0.0000577   0.0000170   0.0153459  -0.1359016   0.1296748
   36  -0.0001852  -0.0001198  -0.0000822  -0.0122002   0.1321394  -0.2397010
[...]

 Mode:                16                     17                     18
 Frequency:      1015.15                1054.67                1061.50
 Force Cnst:      0.9991                 0.7184                 0.7866
 Red. Mass:       1.6454                 1.0962                 1.1848
 IR Active:          YES                    YES                    YES
 IR Intens:        0.897                 15.970                  7.248
 Raman Active:       YES                    YES                    YES
               X      Y      Z        X      Y      Z        X      Y      Z
 C         -0.075  0.002  0.048    0.013  0.017  0.001    0.019  0.007  0.010
 C          0.017 -0.038 -0.008    0.039 -0.038 -0.008   -0.052  0.049  0.046
 C         -0.075 -0.006 -0.049   -0.015  0.014 -0.002    0.020 -0.005 -0.012
 C          0.010  0.039  0.009   -0.038 -0.049 -0.015   -0.038 -0.050 -0.040
 C          0.027 -0.032 -0.132    0.001 -0.003 -0.006   -0.004  0.025  0.022
 C          0.008  0.034  0.134    0.001 -0.007 -0.006    0.005 -0.025 -0.024
 H          0.291  0.046  0.011    0.120  0.229  0.139    0.154  0.154  0.095
 H         -0.283  0.198 -0.166   -0.147 -0.245 -0.121   -0.129 -0.169 -0.112
 H          0.191 -0.000  0.025   -0.291  0.353  0.256    0.442 -0.365 -0.227
 H          0.328 -0.034 -0.012   -0.124  0.192  0.123    0.207 -0.150 -0.101
 H         -0.245 -0.245  0.136    0.161 -0.205 -0.098   -0.186  0.161  0.122
 H          0.175  0.010 -0.022    0.270  0.439  0.295    0.324  0.365  0.215
 H         -0.002  0.199 -0.144   -0.022 -0.014  0.034   -0.026 -0.088  0.093
 H          0.295  0.003 -0.218    0.052  0.027 -0.115   -0.086  0.023  0.011
 H          0.286  0.038  0.228   -0.055  0.014 -0.113   -0.084 -0.038 -0.006
 H          0.004 -0.208  0.138    0.020 -0.003  0.030   -0.030  0.097 -0.105
 TransDip   0.030 -0.004 -0.005   -0.004  0.109  0.067    0.086 -0.001 -0.003

 Mode:                19                     20                     21
 Frequency:      1094.84                1139.75                1223.48
 Force Cnst:      1.1012                 1.2194                 1.0285
 Red. Mass:       1.5593                 1.5932                 1.1662
 IR Active:          YES                    YES                    YES
 IR Intens:        0.720                  2.456                  2.597
 Raman Active:       YES                    YES                    YES
               X      Y      Z        X      Y      Z        X      Y      Z
 C          0.034  0.007 -0.075    0.006  0.027 -0.034    0.017  0.006 -0.015
 C          0.001 -0.012  0.112   -0.045  0.050 -0.055    0.049 -0.045  0.009
 C         -0.033  0.006 -0.076    0.008 -0.027  0.034   -0.017  0.004 -0.017
 C         -0.004 -0.007  0.114   -0.040 -0.054  0.053   -0.043 -0.051  0.005
 C         -0.054 -0.009 -0.051    0.031  0.113 -0.058    0.005  0.043 -0.015
 C          0.057  0.003 -0.045    0.044 -0.109  0.060   -0.010  0.041 -0.017
 H         -0.297  0.147  0.087   -0.193  0.085  0.041   -0.059  0.018  0.008
 H          0.233 -0.242  0.144    0.093 -0.079  0.065    0.075 -0.033  0.044
 H          0.330  0.050  0.170   -0.105 -0.101 -0.165   -0.040  0.045  0.070
 H          0.266  0.188  0.110   -0.181 -0.110 -0.055    0.057  0.028  0.013
 H         -0.184 -0.283  0.110    0.078  0.093 -0.054   -0.071 -0.045  0.036
 H         -0.368 -0.013  0.138   -0.133  0.083  0.154    0.028  0.051  0.070
 H         -0.047  0.135 -0.106    0.238  0.043 -0.420    0.165  0.072 -0.317
 H          0.168  0.025 -0.147   -0.023  0.176 -0.304   -0.314 -0.101  0.484
 H         -0.153  0.011 -0.161   -0.030 -0.182  0.306    0.296 -0.061  0.501
 H          0.037  0.130 -0.098    0.215 -0.007  0.431   -0.147  0.056 -0.319
 TransDip  -0.002  0.025  0.011   -0.050 -0.003 -0.002   -0.002  0.041  0.031

 Mode:                22                     23                     24
 Frequency:      1283.96                1335.51                1340.66
 Force Cnst:      1.1478                 1.2946                 1.3217
 Red. Mass:       1.1818                 1.2320                 1.2481
 IR Active:          YES                    YES                    YES
 IR Intens:        2.043                  1.280                  0.231
 Raman Active:       YES                    YES                    YES
               X      Y      Z        X      Y      Z        X      Y      Z
 C         -0.008 -0.007  0.029   -0.027  0.054 -0.053   -0.025  0.051 -0.049
 C         -0.010  0.012  0.059   -0.001 -0.033  0.050   -0.005  0.043 -0.053
 C         -0.006  0.007 -0.030    0.021  0.054 -0.047   -0.021 -0.057  0.049
 C         -0.003 -0.013 -0.059    0.000 -0.034  0.055   -0.004 -0.040  0.050
 C          0.007 -0.048  0.031    0.003 -0.008  0.012    0.010 -0.024 -0.005
 C          0.004  0.048 -0.030   -0.002 -0.007  0.012    0.007  0.025  0.006
 H          0.066 -0.058 -0.023   -0.269  0.169  0.064   -0.257  0.158  0.061
 H         -0.050  0.087 -0.022   -0.014  0.021 -0.025   -0.013  0.024 -0.023
 H         -0.051 -0.114 -0.034   -0.450 -0.346 -0.191    0.453  0.340  0.175
 H          0.061  0.070  0.030    0.231  0.194  0.081   -0.250 -0.205 -0.088
 H         -0.033 -0.087  0.013    0.019  0.036 -0.032   -0.021 -0.043  0.034
 H         -0.062  0.101  0.025    0.535 -0.299 -0.166    0.481 -0.260 -0.135
 H          0.255  0.117 -0.469    0.021 -0.040 -0.003    0.053  0.003 -0.081
 H         -0.115 -0.140  0.349    0.052  0.000 -0.030   -0.018 -0.080  0.182
 H         -0.118  0.125 -0.359   -0.046 -0.003 -0.037   -0.019  0.079 -0.187
 H          0.238 -0.093  0.488   -0.015 -0.042 -0.004    0.042  0.003  0.071
 TransDip   0.046  0.002  0.001   -0.000  0.000  0.036    0.015 -0.000 -0.000

 Mode:                25                     26                     27
 Frequency:      1396.83                1414.37                1448.79
 Force Cnst:      1.6342                 2.2054                 1.5142
 Red. Mass:       1.4216                 1.8712                 1.2244
 IR Active:          YES                    YES                    YES
 IR Intens:        3.280                  0.298                  2.455
 Raman Active:       YES                    YES                    YES
               X      Y      Z        X      Y      Z        X      Y      Z
 C          0.005  0.002 -0.009    0.016 -0.008 -0.007    0.006 -0.011  0.011
 C         -0.009 -0.019  0.035   -0.027  0.010 -0.044   -0.070 -0.050 -0.042
 C         -0.006 -0.001 -0.008    0.015  0.010  0.008   -0.019 -0.033  0.020
 C          0.008 -0.019  0.038   -0.028 -0.015  0.042    0.037 -0.019 -0.022
 C          0.080  0.035 -0.097    0.062  0.031 -0.178   -0.050  0.019  0.012
 C         -0.077  0.025 -0.102    0.052 -0.024  0.181    0.045  0.025  0.025
 H         -0.128  0.061  0.050   -0.006  0.001  0.005   -0.171  0.071  0.092
 H         -0.038  0.052 -0.047    0.042 -0.047  0.023   -0.136  0.187 -0.136
 H          0.093  0.023  0.078   -0.152 -0.096 -0.128    0.181  0.125  0.094
 H          0.114  0.074  0.061   -0.002 -0.000 -0.005    0.361  0.216  0.244
 H          0.038  0.068 -0.050    0.037  0.056 -0.020    0.259  0.474 -0.290
 H         -0.082  0.003  0.067   -0.171  0.075  0.118   -0.090  0.050  0.034
 H         -0.211 -0.226  0.515   -0.161  0.043  0.211    0.092 -0.202 -0.159
 H         -0.104 -0.066  0.241   -0.269 -0.155  0.493    0.245 -0.011  0.110
 H          0.099 -0.052  0.247   -0.243  0.122 -0.507   -0.123 -0.006  0.048
 H          0.208 -0.195  0.536   -0.141 -0.062 -0.220   -0.025 -0.098 -0.105
 TransDip   0.005 -0.048 -0.033    0.017  0.002  0.001    0.030  0.040 -0.000

 Mode:                28                     29                     30
 Frequency:      1451.65                1478.50                1487.89
 Force Cnst:      1.4418                 1.4138                 1.4110
 Red. Mass:       1.1613                 1.0977                 1.0818
 IR Active:          YES                    YES                    YES
 IR Intens:        6.092                 13.061                 17.298
 Raman Active:       YES                    YES                    YES
               X      Y      Z        X      Y      Z        X      Y      Z
 C         -0.025  0.029 -0.018    0.008 -0.005 -0.001    0.012 -0.011  0.005
 C         -0.034 -0.024 -0.011   -0.025 -0.017 -0.011   -0.006 -0.004 -0.002
 C         -0.013 -0.019  0.007   -0.009 -0.013  0.006   -0.010 -0.010 -0.001
 C         -0.079  0.042  0.027    0.001 -0.001 -0.000    0.025 -0.013 -0.007
 C          0.022 -0.011 -0.015    0.047 -0.054  0.027   -0.004 -0.005 -0.001
 C         -0.011 -0.004  0.004    0.022  0.019 -0.009   -0.039 -0.058  0.020
 H          0.442 -0.187 -0.233   -0.049  0.022  0.026   -0.171  0.060  0.080
 H          0.311 -0.430  0.325   -0.021  0.033 -0.030   -0.102  0.143 -0.110
 H          0.090  0.053  0.051    0.080  0.053  0.043   -0.011 -0.011 -0.004
 H          0.200  0.120  0.133    0.146  0.075  0.089    0.082  0.046  0.052
 H          0.131  0.239 -0.152    0.091  0.166 -0.103    0.039  0.078 -0.055
 H          0.193 -0.088 -0.084    0.037 -0.020 -0.013   -0.063  0.028  0.028
 H          0.038 -0.031 -0.035   -0.118  0.633  0.073   -0.048  0.102  0.031
 H          0.045 -0.022  0.013   -0.584  0.041 -0.296   -0.101  0.006 -0.035
 H          0.166  0.044 -0.064   -0.125 -0.024  0.072    0.593  0.117 -0.258
 H          0.056  0.145  0.123    0.017 -0.137 -0.004    0.048  0.644  0.098
 TransDip   0.078 -0.008  0.005   -0.080  0.082 -0.017    0.044  0.124 -0.018

 Mode:                31                     32                     33
 Frequency:      1742.08                1745.66                3039.88
 Force Cnst:      8.9231                 8.7865                 5.7835
 Red. Mass:       4.9903                 4.8938                 1.0622
 IR Active:          YES                    YES                    YES
 IR Intens:       15.657                 13.791                 19.513
 Raman Active:       YES                    YES                    YES
               X      Y      Z        X      Y      Z        X      Y      Z
 C          0.188 -0.152  0.011   -0.237  0.190 -0.014   -0.000  0.000 -0.000
 C          0.255  0.244  0.045    0.199  0.190  0.035   -0.000  0.002 -0.003
 C         -0.210 -0.225 -0.003   -0.164 -0.174 -0.002   -0.000 -0.000 -0.000
 C         -0.227  0.162  0.019    0.286 -0.204 -0.025    0.001  0.001 -0.001
 C          0.039 -0.011 -0.009   -0.034  0.026  0.012    0.027 -0.008  0.011
 C         -0.042 -0.022 -0.015   -0.020 -0.025 -0.011   -0.039 -0.049  0.008
 H         -0.197  0.007  0.231    0.256 -0.002 -0.285    0.001 -0.001  0.001
 H          0.011  0.131 -0.227   -0.016 -0.160  0.283   -0.000  0.000 -0.000
 H         -0.204 -0.057 -0.244   -0.167 -0.050 -0.193   -0.005 -0.030  0.037
 H          0.225  0.032  0.305    0.181  0.018  0.232    0.001  0.005 -0.006
 H         -0.022  0.168 -0.285   -0.019  0.127 -0.220    0.002  0.000  0.003
 H          0.173 -0.021 -0.179   -0.228  0.033  0.229    0.001 -0.010  0.012
 H          0.055 -0.085 -0.021   -0.094  0.032  0.117   -0.331 -0.066 -0.182
 H          0.093 -0.002 -0.037   -0.118  0.015  0.043    0.006  0.162  0.049
 H         -0.116 -0.020 -0.055   -0.093 -0.027 -0.039   -0.095  0.623  0.178
 H         -0.060 -0.102 -0.053   -0.069 -0.023 -0.113    0.563 -0.042 -0.264
 TransDip   0.004  0.102  0.075    0.119 -0.004 -0.004   -0.040 -0.126  0.051

 Mode:                34                     35                     36
 Frequency:      3043.73                3071.49                3074.56
 Force Cnst:      5.8147                 6.0918                 6.1258
 Red. Mass:       1.0653                 1.0960                 1.0999
 IR Active:          YES                    YES                    YES
 IR Intens:       14.748                 22.337                 22.878
 Raman Active:       YES                    YES                    YES
               X      Y      Z        X      Y      Z        X      Y      Z
 C          0.000 -0.000  0.000   -0.000 -0.000  0.000   -0.000  0.000 -0.000
 C         -0.001 -0.001  0.002   -0.000  0.001 -0.001    0.000  0.000 -0.000
 C          0.000  0.001 -0.000   -0.000  0.000 -0.000    0.000  0.000 -0.000
 C         -0.001  0.002 -0.004    0.000 -0.001  0.001   -0.000 -0.001 -0.000
 C          0.037 -0.051  0.005   -0.032 -0.012 -0.020   -0.043 -0.059 -0.039
 C         -0.000  0.034  0.006   -0.060  0.039  0.036    0.019 -0.032 -0.016
 H         -0.002  0.007 -0.010    0.001 -0.000 -0.001   -0.000 -0.001  0.001
 H         -0.003 -0.000  0.005    0.002 -0.001 -0.002   -0.001  0.000  0.000
 H          0.004  0.017 -0.021   -0.001 -0.012  0.012   -0.001 -0.005  0.007
 H         -0.001 -0.006  0.008    0.000  0.001 -0.000    0.001 -0.002  0.004
 H         -0.002  0.000 -0.004    0.001  0.000  0.002    0.001  0.001  0.001
 H          0.008 -0.033  0.043   -0.002  0.013 -0.017    0.001  0.003 -0.001
 H         -0.440 -0.093 -0.250    0.390  0.068  0.215    0.535  0.085  0.294
 H         -0.001  0.704  0.202   -0.010  0.085  0.022   -0.019  0.624  0.169
 H          0.055 -0.412 -0.115    0.047 -0.451 -0.121   -0.047  0.376  0.101
 H         -0.051  0.008  0.028    0.679 -0.024 -0.314   -0.182  0.003  0.084
 TransDip   0.113 -0.039  0.029   -0.145  0.034  0.026   -0.037 -0.122 -0.085

 Mode:                37                     38                     39
 Frequency:      3153.37                3155.35                3171.30
 Force Cnst:      6.3203                 6.3121                 6.3712
 Red. Mass:       1.0788                 1.0760                 1.0752
 IR Active:          YES                    YES                    YES
 IR Intens:       26.358                 13.124                  3.778
 Raman Active:       YES                    YES                    YES
               X      Y      Z        X      Y      Z        X      Y      Z
 C         -0.020  0.012  0.004    0.004 -0.002 -0.001    0.001 -0.001  0.000
 C          0.001  0.008 -0.011    0.003  0.042 -0.058   -0.008 -0.030  0.032
 C          0.004  0.004  0.000    0.021  0.019  0.005    0.040  0.049 -0.011
 C         -0.006  0.043 -0.062    0.001 -0.008  0.011   -0.000  0.001 -0.001
 C         -0.003  0.002 -0.000    0.001 -0.001  0.001   -0.000  0.001 -0.000
 C          0.000  0.000  0.001    0.003  0.003 -0.000   -0.002 -0.002 -0.000
 H          0.026 -0.135  0.192   -0.004  0.023 -0.033   -0.002  0.012 -0.016
 H          0.222 -0.020 -0.243   -0.042  0.004  0.046   -0.010  0.001  0.011
 H         -0.006 -0.092  0.128   -0.032 -0.495  0.692    0.019  0.272 -0.377
 H         -0.005 -0.035  0.047   -0.025 -0.180  0.240   -0.063 -0.420  0.551
 H         -0.042 -0.010 -0.053   -0.232 -0.054 -0.295   -0.330 -0.077 -0.420
 H          0.059 -0.503  0.733   -0.011  0.093 -0.136    0.000 -0.005  0.007
 H          0.033  0.006  0.015   -0.011 -0.002 -0.007    0.004  0.000  0.003
 H          0.002 -0.031 -0.011   -0.000  0.007  0.002   -0.001 -0.009 -0.003
 H          0.000 -0.003 -0.001    0.002 -0.028 -0.010   -0.001  0.024  0.008
 H         -0.000  0.000 -0.001   -0.032  0.001  0.012    0.025 -0.000 -0.009
 TransDip  -0.028  0.100 -0.127    0.036  0.075 -0.081    0.028  0.013  0.054

 Mode:                40                     41                     42
 Frequency:      3171.93                3251.10                3252.44
 Force Cnst:      6.3533                 6.9494                 6.9551
 Red. Mass:       1.0718                 1.1159                 1.1159
 IR Active:          YES                    YES                    YES
 IR Intens:        3.476                 16.094                  9.810
 Raman Active:       YES                    YES                    YES
               X      Y      Z        X      Y      Z        X      Y      Z
 C         -0.048  0.044 -0.012    0.006  0.005 -0.015    0.035  0.026 -0.087
 C         -0.000 -0.001  0.001    0.001  0.006 -0.008   -0.000 -0.001  0.002
 C          0.001  0.001 -0.000   -0.033  0.022 -0.089    0.006 -0.004  0.016
 C          0.010 -0.025  0.027   -0.000  0.001 -0.001   -0.001  0.006 -0.008
 C          0.002 -0.002 -0.000    0.000  0.000  0.000   -0.001  0.000  0.000
 C          0.000  0.001 -0.000    0.000  0.000  0.000   -0.000  0.000  0.000
 H          0.085 -0.410  0.575    0.016 -0.067  0.092    0.090 -0.379  0.517
 H          0.391 -0.036 -0.429   -0.088  0.010  0.094   -0.498  0.058  0.529
 H          0.001  0.008 -0.012   -0.005 -0.060  0.082    0.001  0.013 -0.018
 H         -0.002 -0.010  0.013   -0.069 -0.391  0.498    0.012  0.069 -0.088
 H         -0.009 -0.002 -0.012    0.458  0.118  0.566   -0.081 -0.021 -0.100
 H         -0.028  0.218 -0.315    0.001 -0.008  0.011    0.007 -0.057  0.081
 H         -0.022 -0.003 -0.009   -0.002 -0.001 -0.001    0.003  0.000  0.001
 H         -0.003  0.022  0.007    0.001 -0.005 -0.001    0.000 -0.001 -0.000
 H          0.002 -0.006 -0.002    0.000 -0.003 -0.001    0.000 -0.004 -0.001
 H         -0.004 -0.000  0.003   -0.003 -0.000  0.001    0.003 -0.000 -0.001
 TransDip  -0.035  0.017  0.045   -0.032  0.021 -0.123    0.051  0.019 -0.084

 STANDARD THERMODYNAMIC QUANTITIES AT   298.15 K  AND     1.00 ATM

   This Molecule has  0 Imaginary Frequencies
   Zero point vibrational energy:       89.903 kcal/mol

   Atom    1 Element C  Has Mass   12.00000
   Atom    2 Element C  Has Mass   12.00000
   Atom    3 Element C  Has Mass   12.00000
   Atom    4 Element C  Has Mass   12.00000
   Atom    5 Element C  Has Mass   12.00000
   Atom    6 Element C  Has Mass   12.00000
   Atom    7 Element H  Has Mass    1.00783
   Atom    8 Element H  Has Mass    1.00783
   Atom    9 Element H  Has Mass    1.00783
   Atom   10 Element H  Has Mass    1.00783
   Atom   11 Element H  Has Mass    1.00783
   Atom   12 Element H  Has Mass    1.00783
   Atom   13 Element H  Has Mass    1.00783
   Atom   14 Element H  Has Mass    1.00783
   Atom   15 Element H  Has Mass    1.00783
   Atom   16 Element H  Has Mass    1.00783
   Molecular Mass:    82.078300 amu
   Principal axes and moments of inertia in amu*Bohr^2:
                             1           2           3
    Eigenvalues --      340.44275   693.08383   831.38248
          X              -0.04125     0.99731    -0.06056
          Y               0.11668     0.06501     0.99104
          Z               0.99231     0.03381    -0.11905
   Rotational Symmetry Number is   1
   The Molecule is an Asymmetric Top
   Translational Enthalpy:        0.889 kcal/mol
   Rotational Enthalpy:           0.889 kcal/mol
   Vibrational Enthalpy:         92.527 kcal/mol
   gas constant (RT):             0.592 kcal/mol
   Translational Entropy:        39.129  cal/mol.K
   Rotational Entropy:           26.775  cal/mol.K
   Vibrational Entropy:          15.277  cal/mol.K

   Total Enthalpy:               94.897 kcal/mol
   Total Entropy:                81.181  cal/mol.K
Archival summary:
1\1\nid00509\FREQ\ProcedureUnspecified\BasisUnspecified\610\cgrambow\FriFeb1504:34:222019FriFeb1504:34:222019\0\\#,FREQ,ProcedureUnspecified,BasisUnspecified,\\0,1\C\H,1,1.09527\H,1,1.09638,2,104.766\C,1,1.5022,2,107.34,3,-115.506,0\H,4,1.08785,1,114.598,2,55.3626,0\C,4,1.32371,1,127.053,2,-123.735,0\H,6,1.08304,4,121.027,1,178.795,0\H,6,1.08394,4,122.24,1,-2.00352,0\C,1,1.52382,2,108.469,3,117.062,0\H,9,1.0953,1,108.507,2,-41.6974,0\H,9,1.0963,1,109.663,2,72.2748,0\C,9,1.50231,1,117.104,2,-163.281,0\H,12,1.08786,9,114.611,1,178.535,0\C,12,1.32369,9,127.03,1,-0.42828,0\H,14,1.08299,12,121.017,9,178.868,0\H,14,1.08397,12,122.266,9,-2.05397,0\\\@

 Total job time:  2541.44s(wall), 9563.10s(cpu) 
 Fri Feb 15 04:34:22 2019

        *************************************************************
        *                                                           *
        *  Thank you very much for using Q-Chem.  Have a nice day.  *
        *                                                           *
        *************************************************************


