
Running Job 1 of 3 ts_optfreq0153.in
qchem ts_optfreq0153.in_1212.0 /tmp/qchem1212/ 1
/global/common/cori/software/qchem/5.1/exe/qcprog.exe ts_optfreq0153.in_1212.0 /tmp/qchem1212/
Check license passed

                  Welcome to Q-Chem
     A Quantum Leap Into The Future Of Chemistry


 Q-Chem 5.1, Q-Chem, Inc., Pleasanton, CA (2018)

 Yihan Shao,  Zhengting Gan,  E. Epifanovsky,  A. T. B. Gilbert,  M. Wormit,  
 J. Kussmann,  A. W. Lange,  A. Behn,  Jia Deng,  Xintian Feng,  D. Ghosh,  
 M. Goldey,  P. R. Horn,  L. D. Jacobson,  I. Kaliman,  T. Kus,  A. Landau,  
 Jie Liu,  E. I. Proynov,  R. M. Richard,  R. P. Steele,  E. J. Sundstrom,  
 H. L. Woodcock III,  P. M. Zimmerman,  D. Zuev,  B. Albrecht,  E. Alguire,  
 S. A. Baeppler,  D. Barton,  Z. Benda,  Y. A. Bernard,  E. J. Berquist,  
 K. B. Bravaya,  H. Burton,  D. Casanova,  Chun-Min Chang,  Yunqing Chen,  
 A. Chien,  K. D. Closser,  M. P. Coons,  S. Coriani,  S. Dasgupta,  
 A. L. Dempwolff,  M. Diedenhofen,  Hainam Do,  R. G. Edgar,  Po-Tung Fang,  
 S. Faraji,  S. Fatehi,  Qingguo Feng,  K. D. Fenk,  J. Fosso-Tande,  
 Qinghui Ge,  A. Ghysels,  G. Gidofalvi,  J. Gomes,  J. Gonthier,  A. Gunina,  
 D. Hait,  M. W. D. Hanson-Heine,  P. H. P. Harbach,  A. W. Hauser,  
 J. E. Herr,  E. G. Hohenstein,  Z. C. Holden,  Kerwin Hui,  B. C. Huynh,  
 T.-C. Jagau,  Hyunjun Ji,  B. Kaduk,  K. Khistyaev,  Jaehoon Kim,  
 P. Klunzinger,  K. Koh,  D. Kosenkov,  L. Koulias,  T. Kowalczyk,  
 C. M. Krauter,  A. Kunitsa,  Ka Un Lao,  A. Laurent,  K. V. Lawler,  
 Joonho Lee,  D. Lefrancois,  S. Lehtola,  D. S. Levine,  Yi-Pei Li,  
 You-Sheng Lin,  Fenglai Liu,  E. Livshits,  A. Luenser,  P. Manohar,  
 E. Mansoor,  S. F. Manzer,  Shan-Ping Mao,  Yuezhi Mao,  N. Mardirossian,  
 A. V. Marenich,  T. Markovich,  L. A. Martinez-Martinez,  S. A. Maurer,  
 N. J. Mayhall,  S. C. McKenzie,  J.-M. Mewes,  A. F. Morrison,  
 J. W. Mullinax,  K. Nanda,  T. S. Nguyen-Beck,  R. Olivares-Amaya,  
 J. A. Parkhill,  T. M. Perrine,  F. Plasser,  P. Pokhilko,  S. Prager,  
 A. Prociuk,  E. Ramos,  D. R. Rehn,  F. Rob,  M. Schneider,  N. Sergueev,  
 S. M. Sharada,  S. Sharma,  D. W. Small,  T. Stauch,  T. Stein,  
 Yu-Chuan Su,  A. J. W. Thom,  A. Tkatchenko,  T. Tsuchimochi,  N. M. Tubman,  
 L. Vogt,  M. L. Vidal,  O. Vydrov,  M. A. Watson,  J. Wenzel,  
 M. de Wergifosse,  T. A. Wesolowski,  A. White,  J. Witte,  A. Yamada,  
 Jun Yang,  K. Yao,  S. Yeganeh,  S. R. Yost,  Zhi-Qiang You,  A. Zech,  
 Igor Ying Zhang,  Xing Zhang,  Yan Zhao,  Ying Zhu,  B. R. Brooks,  
 G. K. L. Chan,  C. J. Cramer,  M. S. Gordon,  W. J. Hehre,  A. Klamt,  
 M. W. Schmidt,  C. D. Sherrill,  D. G. Truhlar,  A. Aspuru-Guzik,  R. Baer,  
 A. T. Bell,  N. A. Besley,  Jeng-Da Chai,  R. A. DiStasio Jr.,  A. Dreuw,  
 B. D. Dunietz,  T. R. Furlani,  Chao-Ping Hsu,  Yousung Jung,  Jing Kong,  
 D. S. Lambrecht,  WanZhen Liang,  C. Ochsenfeld,  V. A. Rassolov,  
 L. V. Slipchenko,  J. E. Subotnik,  T. Van Voorhis,  J. M. Herbert,  
 A. I. Krylov,  P. M. W. Gill,  M. Head-Gordon

 Contributors to earlier versions of Q-Chem not listed above: 
 R. D. Adamson,  B. Austin,  J. Baker,  G. J. O. Beran,  K. Brandhorst,  
 S. T. Brown,  E. F. C. Byrd,  A. K. Chakraborty,  C.-L. Cheng,  
 Siu Hung Chien,  D. M. Chipman,  D. L. Crittenden,  H. Dachsel,  
 R. J. Doerksen,  A. D. Dutoi,  L. Fusti-Molnar,  W. A. Goddard III,  
 A. Golubeva-Zadorozhnaya,  S. R. Gwaltney,  G. Hawkins,  A. Heyden,  
 S. Hirata,  G. Kedziora,  F. J. Keil,  C. Kelley,  Jihan Kim,  R. A. King,  
 R. Z. Khaliullin,  P. P. Korambath,  W. Kurlancheek,  A. M. Lee,  M. S. Lee,  
 S. V. Levchenko,  Ching Yeh Lin,  D. Liotard,  R. C. Lochan,  I. Lotan,  
 P. E. Maslen,  N. Nair,  D. P. O'Neill,  D. Neuhauser,  E. Neuscamman,  
 C. M. Oana,  R. Olson,  B. Peters,  R. Peverati,  P. A. Pieniazek,  
 Y. M. Rhee,  J. Ritchie,  M. A. Rohrdanz,  E. Rosta,  N. J. Russ,  
 H. F. Schaefer III,  N. E. Schultz,  N. Shenvi,  A. C. Simmonett,  A. Sodt,  
 D. Stuck,  K. S. Thanthiriwatte,  V. Vanovschi,  Tao Wang,  A. Warshel,  
 C. F. Williams,  Q. Wu,  X. Xu,  W. Zhang

 Please cite Q-Chem as follows:
 Y. Shao et al., Mol. Phys. 113, 184-215 (2015)
 DOI: 10.1080/00268976.2014.952696

 Q-Chem 5.1.0 for Intel X86 EM64T Linux

 Parts of Q-Chem use Armadillo 8.300.2 (Tropical Shenanigans).
 http://arma.sourceforge.net/

 Q-Chem begins on Tue Feb 19 11:37:02 2019  

Host: cori01
0

     Scratch files written to /tmp/qchem1212//
 Jun2518 |scratch|qcdevops|jenkins|workspace|build_RNUM -1
Processing $rem in /global/common/cori/software/qchem/5.1/config/preferences.
 MEM_TOTAL  96000 

Checking the input file for inconsistencies... 	...done.

--------------------------------------------------------------
User input:
--------------------------------------------------------------
$molecule
0 1
C   0.9742460652  -0.5458907552  -0.7186170532
C   0.4774070371  -0.3747034343   0.8163812280
C   1.1175460736   0.8161304045   1.3226151203
C   0.0287016563   0.2636073117  -1.4522345273
C  -1.3166061220   0.2746735022  -0.8126510177
C  -1.0843098587  -0.3834256715   0.5724765017
H   0.8770186486  -1.6408277984  -0.8571834373
H   2.0336082241  -0.2877530658  -0.8759945471
H   0.7176187105  -1.2461356094   1.4523849747
H   1.3160701776   1.6562511748   0.6581441916
H   1.4066196051   0.9126586845   2.3687596664
H   0.2965148982   0.9053517962  -2.2892281378
H  -2.0581854384  -0.3377309288  -1.3650314556
H  -1.7485894502   1.2870188694  -0.7689438566
H  -1.4231334782  -1.4313363831   0.5605976968
H  -1.6167307490   0.1301769032   1.3833856532
$end

$rem
JOBTYPE                   FREQ
METHOD                    wB97X-D3
BASIS                     def2-TZVP
UNRESTRICTED              TRUE
SCF_ALGORITHM             DIIS
MAX_SCF_CYCLES            100
SCF_CONVERGENCE           8
SYM_IGNORE                TRUE
SYMMETRY                  FALSE
WAVEFUNCTION_ANALYSIS     FALSE
$end

--------------------------------------------------------------
 Adding empirical dispersion correction 
 ----------------------------------------------------------------
 Doing -D3(0) with
 s6  =   1.00000
 s8  =   1.00000
 rs6 =   1.28100
 rs8 =   1.09400
 -D3 energy without 3body term =     -0.0042413169 hartrees
 ----------------------------------------------------------------
             Standard Nuclear Orientation (Angstroms)
    I     Atom           X                Y                Z
 ----------------------------------------------------------------
    1      C       0.9742460652    -0.5458907552    -0.7186170532
    2      C       0.4774070371    -0.3747034343     0.8163812280
    3      C       1.1175460736     0.8161304045     1.3226151203
    4      C       0.0287016563     0.2636073117    -1.4522345273
    5      C      -1.3166061220     0.2746735022    -0.8126510177
    6      C      -1.0843098587    -0.3834256715     0.5724765017
    7      H       0.8770186486    -1.6408277984    -0.8571834373
    8      H       2.0336082241    -0.2877530658    -0.8759945471
    9      H       0.7176187105    -1.2461356094     1.4523849747
   10      H       1.3160701776     1.6562511748     0.6581441916
   11      H       1.4066196051     0.9126586845     2.3687596664
   12      H       0.2965148982     0.9053517962    -2.2892281378
   13      H      -2.0581854384    -0.3377309288    -1.3650314556
   14      H      -1.7485894502     1.2870188694    -0.7689438566
   15      H      -1.4231334782    -1.4313363831     0.5605976968
   16      H      -1.6167307490     0.1301769032     1.3833856532
 ----------------------------------------------------------------
 Nuclear Repulsion Energy =   235.7464660405 hartrees
 There are       23 alpha and       23 beta electrons
 Requested basis set is def2-TZVP
 There are 106 shells and 246 basis functions

 Total QAlloc Memory Limit  96000 MB
 Mega-Array Size       188 MB
 MEM_STATIC part       192 MB
 A cutoff of  1.0D-11 yielded   5449 shell pairs
 There are     30143 function pairs (     38148 Cartesian)
 
 -------------------------------------------------------
 OpenMP Integral Computing Module                       
 Release: version 1.0, May 2013, Q-Chem Inc. Pittsburgh 
 -------------------------------------------------------
 Integral Job Info:
 Integral job number is                      11
 Integral operator is                         1
 short-range coefficients              19572800
 long-range coefficients              100000000
 Omega coefficients                         250
 if combine SR and LR in K                    1
 Integral screening is                        0
 Integral computing path is                   2
 max size of driver memory is            800000
 size of driver memory is                776718
 size of scratch memory is              4473992
 max col of scratch BK array              10000
 max len of scratch array in speh3          662
 max len of scratch index in speh4           32
 max int batch size is                      520
 min int batch size is                       52
 fixed nKL is                                52
 max L of basis functions is                  3
 order of int derivative is                   0
 number of shells is                        106
 number of basis is                         276
 number of cartesian basis is               276
 number of contracted shell pairs          5449
 number of primitive shell pairs          12384
 maxK2 (contraction) of shell pair           36
 max number of K2 of shell pair               1
 max number of CS2 of shell pair            882
 max number of PS2 of shell pair           1602
 mem total for path MDJ                  587568
 -------------------------------------------------------
 Smallest overlap matrix eigenvalue = 1.04E-04
 Guess from superposition of atomic densities
 Warning:  Energy on first SCF cycle will be non-variational
 SAD guess density has 46.000000 electrons

 -----------------------------------------------------------------------
  General SCF calculation program by
  Eric Jon Sundstrom, Paul Horn, Yuezhi Mao, Dmitri Zuev, Alec White,
  David Stuck, Shaama M.S., Shane Yost, Joonho Lee, David Small,
  Daniel Levine, Susi Lehtola, Hugh Burton, Evgeny Epifanovsky
 -----------------------------------------------------------------------
 Exchange:     0.1957 Hartree-Fock + 1.0000 wB97X-D3 + LR-HF
 Correlation:  1.0000 wB97X-D3
 Using SG-2 standard quadrature grid
 Dispersion:   Grimme D3
 using 16 threads for integral computing
 -------------------------------------------------------
 OpenMP Integral computing Module                
 Release: version 1.0, May 2013, Q-Chem Inc. Pittsburgh 
 -------------------------------------------------------
 using 16 threads for integral computing
 -------------------------------------------------------
 OpenMP Integral computing Module                
 Release: version 1.0, May 2013, Q-Chem Inc. Pittsburgh 
 -------------------------------------------------------
 -------------------------------------------------------
 OpenMP BLAS3 based DFT computing Module                
 Release: version 1.0, May 2013, Q-Chem Inc. Pittsburgh 
 -------------------------------------------------------
 A unrestricted SCF calculation will be
 performed using DIIS
 SCF converges when DIIS error is below 1.0e-08
 ---------------------------------------
  Cycle       Energy         DIIS error
 ---------------------------------------
    1    -236.1847453381      1.67e-02  
    2    -234.4271011742      1.47e-03  
    3    -234.3822228331      1.92e-03  
    4    -234.4964964237      5.38e-04  
    5    -234.5060591008      1.74e-04  
    6    -234.5070563996      4.59e-05  
    7    -234.5071309227      2.56e-05  
    8    -234.5071576951      1.25e-05  
    9    -234.5071656427      3.88e-06  
   10    -234.5071664063      1.23e-06  
   11    -234.5071664788      3.44e-07  
   12    -234.5071664857      1.00e-07  
   13    -234.5071664863      3.06e-08  
   14    -234.5071664864      8.83e-09  Convergence criterion met
 ---------------------------------------
 SCF time:   CPU 744.91s  wall 48.00s 
<S^2> =          0.000000000
 SCF   energy in the final basis set =     -234.5071664864
 Total energy in the final basis set =     -234.5071664864
 No wavefunction analysis requested
 Calculating MO derivatives via CPSCF
 D1JvT checksum  = 2361792 60709.6689320869
 D1KAT checksum  = 4753152 5309.7977063607
 D1JvT checksum  = 2361792 41543.8891450285
 D1KAT checksum  = 4753152 2484.0190561427
   1         3          48      0.266834    0.050117
   2         3          48      0.056628    0.016410
   3         3          48      0.010366    0.003162
   4         3          48      0.001532    0.000484
   5        23          28      0.000159    0.000056
   6        48           3      0.000011    0.000006
   7        51           0      0.000000    0.000000    Roots Converged
 Time for AOints: 522.6 s (CPU) 35.1 s (wall)
 ------------------------------------------------------------------------------
                     AOints        : Timing summary (seconds)
 ------------------------------------------------------------------------------
     job step          cpu (% of tot)      sys (% of tot)     wall (% of tot)
 ------------------------------------------------------------------------------
  cpscf_lag         0.3478E+04 (39.5)   0.8208E-02 (66.1)   0.8222E+03 (38.5)
  iterzp            0.4806E+04 (54.6)   0.3516E-02 (28.3)   0.1276E+04 (59.8)
  make_fx           0.0000E+00 ( 0.0)   0.0000E+00 ( 0.0)   0.0000E+00 ( 0.0)
  AOints            0.5226E+03 ( 5.9)   0.6830E-03 ( 5.5)   0.3505E+02 ( 1.6)
 ------------------------------------------------------------------------------
   Grand Totals     0.8808E+04          0.1242E-01          0.2134E+04
 ------------------------------------------------------------------------------
 Calculating analytic Hessian of the SCF energy
 Polarizability Matrix (a.u.)
            1           2           3
    1 -84.3015125  -7.3766689 -24.8831135
    2  -7.3766689 -70.4080754 -12.0981821
    3 -24.8831135 -12.0981821-124.2321206
 Running MAKENN_D3_FD2ND
 
 Direct stationary perturbation theory relativistic correction:
 
 rels  =       0.053130540100
 relv  =      -0.257771141875
 rel2e =       0.000000000000
 E_rel =      -0.204640601775
 
 Hessian of the SCF Energy
            1           2           3           4           5           6
    1   0.5954604  -0.0029595   0.0065837  -0.0589975   0.0013279   0.0111928
    2  -0.0029595   0.5079071  -0.0276634   0.0109514  -0.0614670  -0.0182248
    3   0.0065837  -0.0276634   0.2491753   0.0044870   0.0290569  -0.0148908
    4  -0.0589975   0.0109514   0.0044870   0.3517951   0.0343837   0.0837439
    5   0.0013279  -0.0614670   0.0290569   0.0343837   0.5605049  -0.0841911
    6   0.0111928  -0.0182248  -0.0148908   0.0837439  -0.0841911   0.3825855
    7   0.0024052   0.0069138  -0.0085862  -0.0916053  -0.0888341  -0.0346340
    8  -0.0078142  -0.0013644  -0.0377606  -0.0754299  -0.2165388  -0.0294155
    9  -0.0145690  -0.0201093  -0.0319421  -0.0436464  -0.0493679  -0.1082810
   10  -0.1711629   0.0575562  -0.0395543   0.0127999  -0.0055801  -0.0299895
   11   0.0786717  -0.1288351   0.0590743  -0.0150170   0.0068376   0.0313223
   12  -0.0551901   0.0657784  -0.1093812  -0.0051901   0.0170512  -0.0391463
   13  -0.0282858   0.0138077  -0.0103502  -0.0281281   0.0119682  -0.0131431
   14   0.0258900   0.0116991  -0.0150085  -0.0055651  -0.0027779   0.0092402
   15  -0.0017271   0.0026045  -0.0029530  -0.0167687   0.0078820  -0.0092464
   16  -0.0275146  -0.0042513   0.0177036  -0.1058140   0.0146662  -0.0031578
   17   0.0102207   0.0013431  -0.0023615   0.0019310  -0.0646898  -0.0008339
   18   0.0239090   0.0044562  -0.0216807  -0.0066239   0.0119427  -0.0450331
   19  -0.0389199  -0.0199657  -0.0077197  -0.0015393   0.0097145   0.0086244
   20  -0.0296786  -0.2720766  -0.0310905   0.0009849  -0.0071173  -0.0047149
   21  -0.0003349  -0.0370793  -0.0098706   0.0040443  -0.0354458  -0.0287209
   22  -0.2731593  -0.0580136   0.0347187  -0.0019244   0.0007539  -0.0007356
   23  -0.0582586  -0.0590126   0.0103254   0.0037826  -0.0002833   0.0015969
   24   0.0349451   0.0120537  -0.0603579   0.0209724   0.0086768   0.0050696
   25   0.0012060  -0.0075165   0.0021072  -0.0563889   0.0455720  -0.0268641
   26  -0.0024080   0.0045829  -0.0035087   0.0416766  -0.1951051   0.1035238
   27  -0.0061008   0.0143197  -0.0037065  -0.0309984   0.1005525  -0.1348092
   28  -0.0008435   0.0038899  -0.0112020   0.0005221  -0.0033625   0.0221163
   29   0.0001332  -0.0002428   0.0065946  -0.0007449  -0.0186793   0.0100653
   30  -0.0001002  -0.0020060   0.0030830  -0.0038908  -0.0092518   0.0038830
   31   0.0006976  -0.0076826   0.0131376   0.0031809  -0.0026815  -0.0258243
   32  -0.0023028   0.0015575  -0.0081830  -0.0092852   0.0043580  -0.0147271
   33  -0.0012473   0.0000035  -0.0034706  -0.0001090   0.0042300  -0.0005853
   34   0.0068349   0.0114477  -0.0096466   0.0005839   0.0013228  -0.0042097
   35  -0.0109705  -0.0022082   0.0191931   0.0057519  -0.0042372  -0.0071398
   36   0.0015841   0.0051872   0.0065257   0.0041404  -0.0011353  -0.0074541
   37   0.0002985   0.0002675  -0.0008251  -0.0013254  -0.0003126   0.0015143
   38  -0.0002884  -0.0027713   0.0019437   0.0053262  -0.0001523   0.0001098
   39   0.0001452  -0.0007456   0.0002568  -0.0040572  -0.0004986  -0.0032433
   40  -0.0040480  -0.0013859   0.0055779   0.0010330  -0.0002207  -0.0021503
   41  -0.0005981  -0.0001644  -0.0004994  -0.0004128  -0.0010259   0.0004860
   42   0.0019665   0.0002268  -0.0007908   0.0026895   0.0031347  -0.0026917
   43   0.0020198  -0.0013345   0.0004436  -0.0128617  -0.0297187  -0.0036254
   44  -0.0005417   0.0004536   0.0001951   0.0043579  -0.0002471   0.0002674
   45   0.0003917   0.0013148   0.0000226  -0.0042281  -0.0046594  -0.0009029
   46  -0.0059908  -0.0017248   0.0031248  -0.0113303   0.0110009   0.0171420
   47  -0.0004233   0.0005991  -0.0003074  -0.0026911   0.0006205   0.0026354
   48  -0.0014488  -0.0001164  -0.0000191  -0.0045648   0.0020232   0.0034669
            7           8           9          10          11          12
    1   0.0024052  -0.0078142  -0.0145690  -0.1711629   0.0786717  -0.0551901
    2   0.0069138  -0.0013644  -0.0201093   0.0575562  -0.1288351   0.0657784
    3  -0.0085862  -0.0377606  -0.0319421  -0.0395543   0.0590743  -0.1093812
    4  -0.0916053  -0.0754299  -0.0436464   0.0127999  -0.0150170  -0.0051901
    5  -0.0888341  -0.2165388  -0.0493679  -0.0055801   0.0068376   0.0170512
    6  -0.0346340  -0.0294155  -0.1082810  -0.0299895   0.0313223  -0.0391463
    7   0.1929949   0.1757471   0.1005759  -0.0015145   0.0025617  -0.0029645
    8   0.1757471   0.5115011  -0.0500855   0.0091783  -0.0072210   0.0004150
    9   0.1005759  -0.0500855   0.6026123   0.0058136  -0.0048764   0.0049329
   10  -0.0015145   0.0091783   0.0058136   0.4846663  -0.0548096  -0.0707930
   11   0.0025617  -0.0072210  -0.0048764  -0.0548096   0.3509466  -0.2612437
   12  -0.0029645   0.0004150   0.0049329  -0.0707930  -0.2612437   0.4772943
   13   0.0006010   0.0042473  -0.0039891  -0.1803650   0.0048257   0.0548352
   14  -0.0023954   0.0043684  -0.0002129   0.0173891  -0.0767106   0.0107836
   15  -0.0032177  -0.0010656   0.0005942   0.0709342   0.0097124  -0.0990722
   16  -0.0163024  -0.0191649  -0.0052440  -0.0054842  -0.0079730   0.0209314
   17  -0.0217363  -0.0056640  -0.0053478  -0.0104745  -0.0031076   0.0135207
   18  -0.0131029  -0.0105296  -0.0068357   0.0184460   0.0087581  -0.0293330
   19  -0.0028434  -0.0000345   0.0028712   0.0011788   0.0165351   0.0023823
   20  -0.0007040  -0.0001113  -0.0000179   0.0036494  -0.0153077   0.0026785
   21   0.0053040   0.0073923  -0.0013278  -0.0073644   0.0239676  -0.0051793
   22  -0.0008548  -0.0001744   0.0004930  -0.0176055  -0.0033720   0.0046843
   23  -0.0003922  -0.0001608   0.0002860   0.0192091   0.0040393  -0.0050163
   24  -0.0013621   0.0007158   0.0014645  -0.0150979  -0.0075278   0.0059653
   25   0.0006421  -0.0166482   0.0077599  -0.0015923  -0.0003886   0.0015384
   26   0.0012081  -0.0217566   0.0167441   0.0005851  -0.0000675   0.0015238
   27   0.0036982  -0.0041151   0.0099988  -0.0005128   0.0012670  -0.0038816
   28  -0.0356517  -0.0593984   0.0285591   0.0003387  -0.0076342  -0.0038114
   29  -0.0543259  -0.2076260   0.1308295   0.0000772   0.0045139   0.0019046
   30   0.0326888   0.1346984  -0.1641901   0.0003544   0.0024772   0.0009267
   31  -0.0461715  -0.0137667  -0.0784339  -0.0013309   0.0080151   0.0050472
   32  -0.0151266  -0.0575295  -0.0164656   0.0015680  -0.0039892  -0.0015813
   33  -0.0802487  -0.0174358  -0.3112521   0.0005996  -0.0034641  -0.0011652
   34   0.0004373   0.0005151   0.0002339  -0.0755659  -0.0372210   0.0576582
   35   0.0010819   0.0015441  -0.0000498  -0.0361828  -0.1368472   0.1468505
   36   0.0016499   0.0023722   0.0002335   0.0564189   0.1439339  -0.2091314
   37  -0.0012127   0.0001934  -0.0007158  -0.0216488  -0.0119414  -0.0101301
   38  -0.0016834  -0.0013618  -0.0000442  -0.0039592   0.0028073   0.0034303
   39   0.0021725   0.0032653   0.0005059   0.0101409   0.0085826   0.0083727
   40   0.0001519  -0.0004419  -0.0004284  -0.0174557   0.0276393   0.0001153
   41  -0.0006858   0.0007870  -0.0005595   0.0002417   0.0046697  -0.0004010
   42  -0.0009165  -0.0003579   0.0011840   0.0018537  -0.0140379   0.0024927
   43  -0.0034659   0.0015994  -0.0003405  -0.0016118  -0.0011143   0.0030914
   44  -0.0016284   0.0010295  -0.0008435   0.0004812  -0.0006041   0.0016715
   45  -0.0008524   0.0005365   0.0006267  -0.0000743   0.0007540  -0.0007673
   46   0.0023898   0.0013926   0.0010607  -0.0036462   0.0012224  -0.0022044
   47  -0.0000003   0.0001043   0.0001207   0.0010708  -0.0011245   0.0026343
   48  -0.0002042   0.0013701   0.0016757  -0.0011750   0.0013007  -0.0029271
           13          14          15          16          17          18
    1  -0.0282858   0.0258900  -0.0017271  -0.0275146   0.0102207   0.0239090
    2   0.0138077   0.0116991   0.0026045  -0.0042513   0.0013431   0.0044562
    3  -0.0103502  -0.0150085  -0.0029530   0.0177036  -0.0023615  -0.0216807
    4  -0.0281281  -0.0055651  -0.0167687  -0.1058140   0.0019310  -0.0066239
    5   0.0119682  -0.0027779   0.0078820   0.0146662  -0.0646898   0.0119427
    6  -0.0131431   0.0092402  -0.0092464  -0.0031578  -0.0008339  -0.0450331
    7   0.0006010  -0.0023954  -0.0032177  -0.0163024  -0.0217363  -0.0131029
    8   0.0042473   0.0043684  -0.0010656  -0.0191649  -0.0056640  -0.0105296
    9  -0.0039891  -0.0002129   0.0005942  -0.0052440  -0.0053478  -0.0068357
   10  -0.1803650   0.0173891   0.0709342  -0.0054842  -0.0104745   0.0184460
   11   0.0048257  -0.0767106   0.0097124  -0.0079730  -0.0031076   0.0087581
   12   0.0548352   0.0107836  -0.0990722   0.0209314   0.0135207  -0.0293330
   13   0.5152744  -0.0379220   0.0278127  -0.0630012   0.0081869  -0.0054166
   14  -0.0379220   0.5359612   0.0156339   0.0132493  -0.0989098   0.0340737
   15   0.0278127   0.0156339   0.4181978  -0.0063946   0.0334122  -0.1420764
   16  -0.0630012   0.0132493  -0.0063946   0.4120757   0.0038146  -0.0928904
   17   0.0081869  -0.0989098   0.0334122   0.0038146   0.5602350   0.0435042
   18  -0.0054166   0.0340737  -0.1420764  -0.0928904   0.0435042   0.5000925
   19  -0.0012226  -0.0024986  -0.0015523   0.0022799   0.0015804  -0.0004253
   20   0.0001309   0.0011467   0.0002996   0.0002544   0.0011411   0.0013141
   21   0.0028551  -0.0002730   0.0003860  -0.0015429   0.0001245   0.0043115
   22  -0.0015679  -0.0007956  -0.0023670  -0.0012711   0.0002017   0.0000606
   23   0.0022258  -0.0022258   0.0004927   0.0010925  -0.0002543  -0.0000782
   24  -0.0017478   0.0044864  -0.0002855   0.0020309  -0.0012577  -0.0061762
   25  -0.0038323   0.0010199  -0.0008697  -0.0108072   0.0198192  -0.0195304
   26  -0.0006801   0.0004689  -0.0003039  -0.0000491  -0.0015974   0.0015619
   27  -0.0003846   0.0003032   0.0001338   0.0003709   0.0054256  -0.0024703
   28  -0.0001099  -0.0011526  -0.0000441  -0.0004126   0.0007938  -0.0009133
   29  -0.0006302   0.0004429  -0.0001046   0.0004248  -0.0009596   0.0003712
   30  -0.0004593   0.0002507  -0.0003120  -0.0004262  -0.0010388   0.0003817
   31   0.0011116   0.0020586   0.0009633  -0.0003370  -0.0016783  -0.0003783
   32  -0.0008688  -0.0009984  -0.0004057   0.0008139  -0.0012698  -0.0010370
   33  -0.0001310  -0.0005094  -0.0000272   0.0006904  -0.0001975   0.0000511
   34   0.0019581  -0.0151192   0.0198039  -0.0056617   0.0017123   0.0006164
   35   0.0016006   0.0016518   0.0011884  -0.0012675   0.0034268  -0.0023130
   36  -0.0018149   0.0038170   0.0012975  -0.0010336   0.0020530  -0.0019865
   37  -0.1394121  -0.0864077  -0.0822133  -0.0019875  -0.0029490  -0.0004844
   38  -0.0816467  -0.1133062  -0.0705097   0.0073110   0.0041925   0.0084252
   39  -0.0767585  -0.0663029  -0.0964823  -0.0163778  -0.0128593  -0.0151774
   40  -0.0776458   0.0883915   0.0049036  -0.0025390   0.0002246   0.0015429
   41   0.0862782  -0.2577774  -0.0085216   0.0009434  -0.0078911  -0.0016322
   42   0.0099989  -0.0108952  -0.0539204  -0.0092208   0.0242470   0.0046153
   43  -0.0009287   0.0072493  -0.0029961  -0.0668081  -0.0719805   0.0031703
   44  -0.0025022  -0.0099490  -0.0023882  -0.0704445  -0.2755954  -0.0049267
   45   0.0060517   0.0270444  -0.0002887   0.0021968  -0.0068078  -0.0495209
   46   0.0055543  -0.0033915  -0.0062672  -0.1064151   0.0603334   0.0920205
   47  -0.0090212   0.0069160   0.0120735   0.0605799  -0.1103998  -0.0938904
   48   0.0126415  -0.0124312  -0.0159452   0.0923643  -0.0915828  -0.1891620
           19          20          21          22          23          24
    1  -0.0389199  -0.0296786  -0.0003349  -0.2731593  -0.0582586   0.0349451
    2  -0.0199657  -0.2720766  -0.0370793  -0.0580136  -0.0590126   0.0120537
    3  -0.0077197  -0.0310905  -0.0098706   0.0347187   0.0103254  -0.0603579
    4  -0.0015393   0.0009849   0.0040443  -0.0019244   0.0037826   0.0209724
    5   0.0097145  -0.0071173  -0.0354458   0.0007539  -0.0002833   0.0086768
    6   0.0086244  -0.0047149  -0.0287209  -0.0007356   0.0015969   0.0050696
    7  -0.0028434  -0.0007040   0.0053040  -0.0008548  -0.0003922  -0.0013621
    8  -0.0000345  -0.0001113   0.0073923  -0.0001744  -0.0001608   0.0007158
    9   0.0028712  -0.0000179  -0.0013278   0.0004930   0.0002860   0.0014645
   10   0.0011788   0.0036494  -0.0073644  -0.0176055   0.0192091  -0.0150979
   11   0.0165351  -0.0153077   0.0239676  -0.0033720   0.0040393  -0.0075278
   12   0.0023823   0.0026785  -0.0051793   0.0046843  -0.0050163   0.0059653
   13  -0.0012226   0.0001309   0.0028551  -0.0015679   0.0022258  -0.0017478
   14  -0.0024986   0.0011467  -0.0002730  -0.0007956  -0.0022258   0.0044864
   15  -0.0015523   0.0002996   0.0003860  -0.0023670   0.0004927  -0.0002855
   16   0.0022799   0.0002544  -0.0015429  -0.0012711   0.0010925   0.0020309
   17   0.0015804   0.0011411   0.0001245   0.0002017  -0.0002543  -0.0012577
   18  -0.0004253   0.0013141   0.0043115   0.0000606  -0.0000782  -0.0061762
   19   0.0457282   0.0242816   0.0008719  -0.0053863  -0.0296534  -0.0031105
   20   0.0242816   0.3018676   0.0320137  -0.0011826  -0.0076919  -0.0013352
   21   0.0008719   0.0320137   0.0425269   0.0013520   0.0061088   0.0013587
   22  -0.0053863  -0.0011826   0.0013520   0.3012153   0.0605850  -0.0394803
   23  -0.0296534  -0.0076919   0.0061088   0.0605850   0.0656382  -0.0133263
   24  -0.0031105  -0.0013352   0.0013587  -0.0394803  -0.0133263   0.0520770
   25   0.0003098  -0.0002615  -0.0001832  -0.0001274  -0.0004671   0.0001127
   26  -0.0001727   0.0000975   0.0003638  -0.0001002  -0.0000751   0.0001920
   27  -0.0005312   0.0005731  -0.0007914   0.0002826   0.0003587  -0.0001514
   28   0.0001340   0.0017070   0.0018506   0.0005077   0.0005703  -0.0004941
   29   0.0002897  -0.0005250  -0.0001639   0.0003678  -0.0004687  -0.0004206
   30  -0.0001107  -0.0004130  -0.0002091  -0.0000996  -0.0002086   0.0004545
   31   0.0010902  -0.0015627  -0.0038087   0.0000094   0.0001752   0.0009527
   32  -0.0004030   0.0005359   0.0013426   0.0002113  -0.0002121  -0.0006101
   33  -0.0005248   0.0003841   0.0001371  -0.0001935   0.0000702  -0.0001734
   34  -0.0008017   0.0012245  -0.0017990   0.0014307  -0.0006992   0.0004989
   35   0.0008585  -0.0013793   0.0010010   0.0020057   0.0002870  -0.0012791
   36  -0.0004197  -0.0003239  -0.0012374   0.0012309  -0.0003385  -0.0002312
   37  -0.0005510   0.0003053  -0.0002219  -0.0009578   0.0003023   0.0006979
   38   0.0006255  -0.0002365  -0.0004018  -0.0001173   0.0000758  -0.0000989
   39   0.0000023   0.0002289  -0.0001362   0.0001971   0.0000570  -0.0003061
   40   0.0004677   0.0000541  -0.0001470  -0.0000125   0.0007342  -0.0008898
   41  -0.0001628  -0.0000210  -0.0000340  -0.0001544   0.0000286  -0.0001775
   42  -0.0004095   0.0003521  -0.0010143  -0.0002057  -0.0002046   0.0010241
   43   0.0000095   0.0011393   0.0002125  -0.0000700   0.0004691  -0.0001030
   44  -0.0007821  -0.0005607   0.0003582  -0.0002051   0.0000502  -0.0000848
   45   0.0001187   0.0000092   0.0000484  -0.0001502  -0.0001167  -0.0000886
   46   0.0000662  -0.0003419  -0.0010881  -0.0002262   0.0003244   0.0020749
   47  -0.0002127   0.0002385   0.0007254  -0.0000100   0.0002655  -0.0000069
   48  -0.0000671   0.0000420  -0.0002818   0.0002128  -0.0000066   0.0003566
           25          26          27          28          29          30
    1   0.0012060  -0.0024080  -0.0061008  -0.0008435   0.0001332  -0.0001002
    2  -0.0075165   0.0045829   0.0143197   0.0038899  -0.0002428  -0.0020060
    3   0.0021072  -0.0035087  -0.0037065  -0.0112020   0.0065946   0.0030830
    4  -0.0563889   0.0416766  -0.0309984   0.0005221  -0.0007449  -0.0038908
    5   0.0455720  -0.1951051   0.1005525  -0.0033625  -0.0186793  -0.0092518
    6  -0.0268641   0.1035238  -0.1348092   0.0221163   0.0100653   0.0038830
    7   0.0006421   0.0012081   0.0036982  -0.0356517  -0.0543259   0.0326888
    8  -0.0166482  -0.0217566  -0.0041151  -0.0593984  -0.2076260   0.1346984
    9   0.0077599   0.0167441   0.0099988   0.0285591   0.1308295  -0.1641901
   10  -0.0015923   0.0005851  -0.0005128   0.0003387   0.0000772   0.0003544
   11  -0.0003886  -0.0000675   0.0012670  -0.0076342   0.0045139   0.0024772
   12   0.0015384   0.0015238  -0.0038816  -0.0038114   0.0019046   0.0009267
   13  -0.0038323  -0.0006801  -0.0003846  -0.0001099  -0.0006302  -0.0004593
   14   0.0010199   0.0004689   0.0003032  -0.0011526   0.0004429   0.0002507
   15  -0.0008697  -0.0003039   0.0001338  -0.0000441  -0.0001046  -0.0003120
   16  -0.0108072  -0.0000491   0.0003709  -0.0004126   0.0004248  -0.0004262
   17   0.0198192  -0.0015974   0.0054256   0.0007938  -0.0009596  -0.0010388
   18  -0.0195304   0.0015619  -0.0024703  -0.0009133   0.0003712   0.0003817
   19   0.0003098  -0.0001727  -0.0005312   0.0001340   0.0002897  -0.0001107
   20  -0.0002615   0.0000975   0.0005731   0.0017070  -0.0005250  -0.0004130
   21  -0.0001832   0.0003638  -0.0007914   0.0018506  -0.0001639  -0.0002091
   22  -0.0001274  -0.0001002   0.0002826   0.0005077   0.0003678  -0.0000996
   23  -0.0004671  -0.0000751   0.0003587   0.0005703  -0.0004687  -0.0002086
   24   0.0001127   0.0001920  -0.0001514  -0.0004941  -0.0004206   0.0004545
   25   0.0691754  -0.0395125   0.0375033   0.0018331  -0.0034881  -0.0011510
   26  -0.0395125   0.2145024  -0.1167799   0.0003847  -0.0042527  -0.0018914
   27   0.0375033  -0.1167799   0.1362710  -0.0039728  -0.0005647   0.0015295
   28   0.0018331   0.0003847  -0.0039728   0.0302416   0.0577194  -0.0289852
   29  -0.0034881  -0.0042527  -0.0005647   0.0577194   0.2232668  -0.1430973
   30  -0.0011510  -0.0018914   0.0015295  -0.0289852  -0.1430973   0.1645066
   31  -0.0014858  -0.0009147   0.0026750   0.0038542   0.0006547   0.0025153
   32   0.0012129   0.0015891  -0.0007004   0.0045481   0.0050831   0.0209707
   33   0.0004977  -0.0003011   0.0002418  -0.0047210  -0.0041634  -0.0096944
   34   0.0005940  -0.0002806  -0.0011127   0.0004442  -0.0002243  -0.0002343
   35   0.0001596   0.0003849  -0.0004968   0.0013011  -0.0006460  -0.0004285
   36   0.0003171  -0.0002940  -0.0015146   0.0011348  -0.0007995  -0.0004240
   37  -0.0000846   0.0000348  -0.0000032  -0.0003220   0.0000756   0.0000945
   38   0.0001510   0.0000943   0.0003817   0.0004234  -0.0001391  -0.0001869
   39  -0.0004967  -0.0003740  -0.0007683   0.0000103  -0.0000124   0.0001624
   40  -0.0002415   0.0001091  -0.0002096  -0.0002130  -0.0000598   0.0000173
   41   0.0003278   0.0000253  -0.0000208   0.0002518  -0.0000653  -0.0001856
   42  -0.0009612  -0.0000736  -0.0001254   0.0004272  -0.0003128  -0.0000671
   43   0.0012272  -0.0002228  -0.0002079  -0.0002107  -0.0001864  -0.0001839
   44  -0.0002255   0.0011712  -0.0006137   0.0000262   0.0002354   0.0002427
   45  -0.0003189  -0.0004066   0.0002555   0.0000078  -0.0001308  -0.0000498
   46  -0.0004276   0.0003422  -0.0004957  -0.0001122  -0.0000829  -0.0000289
   47   0.0002457  -0.0000622   0.0001096  -0.0000681   0.0000622   0.0000683
   48   0.0005391   0.0000237  -0.0002116   0.0000379   0.0000049   0.0000191
           31          32          33          34          35          36
    1   0.0006976  -0.0023028  -0.0012473   0.0068349  -0.0109705   0.0015841
    2  -0.0076826   0.0015575   0.0000035   0.0114477  -0.0022082   0.0051872
    3   0.0131376  -0.0081830  -0.0034706  -0.0096466   0.0191931   0.0065257
    4   0.0031809  -0.0092852  -0.0001090   0.0005839   0.0057519   0.0041404
    5  -0.0026815   0.0043580   0.0042300   0.0013228  -0.0042372  -0.0011353
    6  -0.0258243  -0.0147271  -0.0005853  -0.0042097  -0.0071398  -0.0074541
    7  -0.0461715  -0.0151266  -0.0802487   0.0004373   0.0010819   0.0016499
    8  -0.0137667  -0.0575295  -0.0174358   0.0005151   0.0015441   0.0023722
    9  -0.0784339  -0.0164656  -0.3112521   0.0002339  -0.0000498   0.0002335
   10  -0.0013309   0.0015680   0.0005996  -0.0755659  -0.0361828   0.0564189
   11   0.0080151  -0.0039892  -0.0034641  -0.0372210  -0.1368472   0.1439339
   12   0.0050472  -0.0015813  -0.0011652   0.0576582   0.1468505  -0.2091314
   13   0.0011116  -0.0008688  -0.0001310   0.0019581   0.0016006  -0.0018149
   14   0.0020586  -0.0009984  -0.0005094  -0.0151192   0.0016518   0.0038170
   15   0.0009633  -0.0004057  -0.0000272   0.0198039   0.0011884   0.0012975
   16  -0.0003370   0.0008139   0.0006904  -0.0056617  -0.0012675  -0.0010336
   17  -0.0016783  -0.0012698  -0.0001975   0.0017123   0.0034268   0.0020530
   18  -0.0003783  -0.0010370   0.0000511   0.0006164  -0.0023130  -0.0019865
   19   0.0010902  -0.0004030  -0.0005248  -0.0008017   0.0008585  -0.0004197
   20  -0.0015627   0.0005359   0.0003841   0.0012245  -0.0013793  -0.0003239
   21  -0.0038087   0.0013426   0.0001371  -0.0017990   0.0010010  -0.0012374
   22   0.0000094   0.0002113  -0.0001935   0.0014307   0.0020057   0.0012309
   23   0.0001752  -0.0002121   0.0000702  -0.0006992   0.0002870  -0.0003385
   24   0.0009527  -0.0006101  -0.0001734   0.0004989  -0.0012791  -0.0002312
   25  -0.0014858   0.0012129   0.0004977   0.0005940   0.0001596   0.0003171
   26  -0.0009147   0.0015891  -0.0003011  -0.0002806   0.0003849  -0.0002940
   27   0.0026750  -0.0007004   0.0002418  -0.0011127  -0.0004968  -0.0015146
   28   0.0038542   0.0045481  -0.0047210   0.0004442   0.0013011   0.0011348
   29   0.0006547   0.0050831  -0.0041634  -0.0002243  -0.0006460  -0.0007995
   30   0.0025153   0.0209707  -0.0096944  -0.0002343  -0.0004285  -0.0004240
   31   0.0408979   0.0197431   0.0853370  -0.0007424  -0.0016011  -0.0017403
   32   0.0197431   0.0493638   0.0204101   0.0003787   0.0009445   0.0007031
   33   0.0853370   0.0204101   0.3256595   0.0001742   0.0005601   0.0005165
   34  -0.0007424   0.0003787   0.0001742   0.0698298   0.0377015  -0.0623574
   35  -0.0016011   0.0009445   0.0005601   0.0377015   0.1362945  -0.1555487
   36  -0.0017403   0.0007031   0.0005165  -0.0623574  -0.1555487   0.2159575
   37   0.0004737  -0.0002151  -0.0000472  -0.0006893   0.0000587   0.0007617
   38  -0.0005616   0.0003867   0.0002660  -0.0004961   0.0002369   0.0002245
   39   0.0000267  -0.0000624  -0.0001642  -0.0003001  -0.0006613  -0.0013072
   40  -0.0002582   0.0000602   0.0001599   0.0006543  -0.0013794  -0.0006084
   41  -0.0001497   0.0000912   0.0000974   0.0006891   0.0005144  -0.0001777
   42  -0.0006150   0.0001813   0.0001100  -0.0006606  -0.0000452  -0.0000304
   43  -0.0002501  -0.0005131  -0.0002257   0.0002612   0.0003738   0.0001238
   44  -0.0002615   0.0000317   0.0000674  -0.0001406   0.0004906   0.0004150
   45   0.0001878  -0.0001076  -0.0001441   0.0003315  -0.0007719  -0.0008683
   46  -0.0007397   0.0001782  -0.0000106   0.0004325   0.0005080   0.0006127
   47   0.0002137   0.0000574  -0.0000175  -0.0008108  -0.0004575  -0.0000882
   48  -0.0000420   0.0002724  -0.0000395   0.0010033  -0.0000590  -0.0003457
           37          38          39          40          41          42
    1   0.0002985  -0.0002884   0.0001452  -0.0040480  -0.0005981   0.0019665
    2   0.0002675  -0.0027713  -0.0007456  -0.0013859  -0.0001644   0.0002268
    3  -0.0008251   0.0019437   0.0002568   0.0055779  -0.0004994  -0.0007908
    4  -0.0013254   0.0053262  -0.0040572   0.0010330  -0.0004128   0.0026895
    5  -0.0003126  -0.0001523  -0.0004986  -0.0002207  -0.0010259   0.0031347
    6   0.0015143   0.0001098  -0.0032433  -0.0021503   0.0004860  -0.0026917
    7  -0.0012127  -0.0016834   0.0021725   0.0001519  -0.0006858  -0.0009165
    8   0.0001934  -0.0013618   0.0032653  -0.0004419   0.0007870  -0.0003579
    9  -0.0007158  -0.0000442   0.0005059  -0.0004284  -0.0005595   0.0011840
   10  -0.0216488  -0.0039592   0.0101409  -0.0174557   0.0002417   0.0018537
   11  -0.0119414   0.0028073   0.0085826   0.0276393   0.0046697  -0.0140379
   12  -0.0101301   0.0034303   0.0083727   0.0001153  -0.0004010   0.0024927
   13  -0.1394121  -0.0816467  -0.0767585  -0.0776458   0.0862782   0.0099989
   14  -0.0864077  -0.1133062  -0.0663029   0.0883915  -0.2577774  -0.0108952
   15  -0.0822133  -0.0705097  -0.0964823   0.0049036  -0.0085216  -0.0539204
   16  -0.0019875   0.0073110  -0.0163778  -0.0025390   0.0009434  -0.0092208
   17  -0.0029490   0.0041925  -0.0128593   0.0002246  -0.0078911   0.0242470
   18  -0.0004844   0.0084252  -0.0151774   0.0015429  -0.0016322   0.0046153
   19  -0.0005510   0.0006255   0.0000023   0.0004677  -0.0001628  -0.0004095
   20   0.0003053  -0.0002365   0.0002289   0.0000541  -0.0000210   0.0003521
   21  -0.0002219  -0.0004018  -0.0001362  -0.0001470  -0.0000340  -0.0010143
   22  -0.0009578  -0.0001173   0.0001971  -0.0000125  -0.0001544  -0.0002057
   23   0.0003023   0.0000758   0.0000570   0.0007342   0.0000286  -0.0002046
   24   0.0006979  -0.0000989  -0.0003061  -0.0008898  -0.0001775   0.0010241
   25  -0.0000846   0.0001510  -0.0004967  -0.0002415   0.0003278  -0.0009612
   26   0.0000348   0.0000943  -0.0003740   0.0001091   0.0000253  -0.0000736
   27  -0.0000032   0.0003817  -0.0007683  -0.0002096  -0.0000208  -0.0001254
   28  -0.0003220   0.0004234   0.0000103  -0.0002130   0.0002518   0.0004272
   29   0.0000756  -0.0001391  -0.0000124  -0.0000598  -0.0000653  -0.0003128
   30   0.0000945  -0.0001869   0.0001624   0.0000173  -0.0001856  -0.0000671
   31   0.0004737  -0.0005616   0.0000267  -0.0002582  -0.0001497  -0.0006150
   32  -0.0002151   0.0003867  -0.0000624   0.0000602   0.0000912   0.0001813
   33  -0.0000472   0.0002660  -0.0001642   0.0001599   0.0000974   0.0001100
   34  -0.0006893  -0.0004961  -0.0003001   0.0006543   0.0006891  -0.0006606
   35   0.0000587   0.0002369  -0.0006613  -0.0013794   0.0005144  -0.0000452
   36   0.0007617   0.0002245  -0.0013072  -0.0006084  -0.0001777  -0.0000304
   37   0.1592799   0.0941536   0.0869530   0.0076266   0.0060053   0.0046494
   38   0.0941536   0.1283188   0.0706303  -0.0195892  -0.0192855  -0.0153400
   39   0.0869530   0.0706303   0.1100105  -0.0014988  -0.0019903  -0.0007470
   40   0.0076266  -0.0195892  -0.0014988   0.0913847  -0.0935590  -0.0069866
   41   0.0060053  -0.0192855  -0.0019903  -0.0935590   0.2788630   0.0116750
   42   0.0046494  -0.0153400  -0.0007470  -0.0069866   0.0116750   0.0520096
   43   0.0006672   0.0006959  -0.0002005   0.0003135   0.0011262  -0.0019907
   44   0.0002682   0.0008419   0.0003372  -0.0004176   0.0001016   0.0015924
   45   0.0000554   0.0006263   0.0010112   0.0006307   0.0017454  -0.0036917
   46  -0.0001545  -0.0003446   0.0000416   0.0007822  -0.0001408   0.0003814
   47   0.0001611   0.0002985   0.0004054  -0.0001596   0.0011498  -0.0001421
   48  -0.0000850   0.0005437  -0.0019878  -0.0000286   0.0001959   0.0016432
           43          44          45          46          47          48
    1   0.0020198  -0.0005417   0.0003917  -0.0059908  -0.0004233  -0.0014488
    2  -0.0013345   0.0004536   0.0013148  -0.0017248   0.0005991  -0.0001164
    3   0.0004436   0.0001951   0.0000226   0.0031248  -0.0003074  -0.0000191
    4  -0.0128617   0.0043579  -0.0042281  -0.0113303  -0.0026911  -0.0045648
    5  -0.0297187  -0.0002471  -0.0046594   0.0110009   0.0006205   0.0020232
    6  -0.0036254   0.0002674  -0.0009029   0.0171420   0.0026354   0.0034669
    7  -0.0034659  -0.0016284  -0.0008524   0.0023898  -0.0000003  -0.0002042
    8   0.0015994   0.0010295   0.0005365   0.0013926   0.0001043   0.0013701
    9  -0.0003405  -0.0008435   0.0006267   0.0010607   0.0001207   0.0016757
   10  -0.0016118   0.0004812  -0.0000743  -0.0036462   0.0010708  -0.0011750
   11  -0.0011143  -0.0006041   0.0007540   0.0012224  -0.0011245   0.0013007
   12   0.0030914   0.0016715  -0.0007673  -0.0022044   0.0026343  -0.0029271
   13  -0.0009287  -0.0025022   0.0060517   0.0055543  -0.0090212   0.0126415
   14   0.0072493  -0.0099490   0.0270444  -0.0033915   0.0069160  -0.0124312
   15  -0.0029961  -0.0023882  -0.0002887  -0.0062672   0.0120735  -0.0159452
   16  -0.0668081  -0.0704445   0.0021968  -0.1064151   0.0605799   0.0923643
   17  -0.0719805  -0.2755954  -0.0068078   0.0603334  -0.1103998  -0.0915828
   18   0.0031703  -0.0049267  -0.0495209   0.0920205  -0.0938904  -0.1891620
   19   0.0000095  -0.0007821   0.0001187   0.0000662  -0.0002127  -0.0000671
   20   0.0011393  -0.0005607   0.0000092  -0.0003419   0.0002385   0.0000420
   21   0.0002125   0.0003582   0.0000484  -0.0010881   0.0007254  -0.0002818
   22  -0.0000700  -0.0002051  -0.0001502  -0.0002262  -0.0000100   0.0002128
   23   0.0004691   0.0000502  -0.0001167   0.0003244   0.0002655  -0.0000066
   24  -0.0001030  -0.0000848  -0.0000886   0.0020749  -0.0000069   0.0003566
   25   0.0012272  -0.0002255  -0.0003189  -0.0004276   0.0002457   0.0005391
   26  -0.0002228   0.0011712  -0.0004066   0.0003422  -0.0000622   0.0000237
   27  -0.0002079  -0.0006137   0.0002555  -0.0004957   0.0001096  -0.0002116
   28  -0.0002107   0.0000262   0.0000078  -0.0001122  -0.0000681   0.0000379
   29  -0.0001864   0.0002354  -0.0001308  -0.0000829   0.0000622   0.0000049
   30  -0.0001839   0.0002427  -0.0000498  -0.0000289   0.0000683   0.0000191
   31  -0.0002501  -0.0002615   0.0001878  -0.0007397   0.0002137  -0.0000420
   32  -0.0005131   0.0000317  -0.0001076   0.0001782   0.0000574   0.0002724
   33  -0.0002257   0.0000674  -0.0001441  -0.0000106  -0.0000175  -0.0000395
   34   0.0002612  -0.0001406   0.0003315   0.0004325  -0.0008108   0.0010033
   35   0.0003738   0.0004906  -0.0007719   0.0005080  -0.0004575  -0.0000590
   36   0.0001238   0.0004150  -0.0008683   0.0006127  -0.0000882  -0.0003457
   37   0.0006672   0.0002682   0.0000554  -0.0001545   0.0001611  -0.0000850
   38   0.0006959   0.0008419   0.0006263  -0.0003446   0.0002985   0.0005437
   39  -0.0002005   0.0003372   0.0010112   0.0000416   0.0004054  -0.0019878
   40   0.0003135  -0.0004176   0.0006307   0.0007822  -0.0001596  -0.0000286
   41   0.0011262   0.0001016   0.0017454  -0.0001408   0.0011498   0.0001959
   42  -0.0019907   0.0015924  -0.0036917   0.0003814  -0.0001421   0.0016432
   43   0.0762043   0.0769625   0.0031140   0.0055044   0.0154546  -0.0002820
   44   0.0769625   0.2965065   0.0033878  -0.0049469  -0.0139559   0.0003221
   45   0.0031140   0.0033878   0.0538084  -0.0074621  -0.0224176   0.0005494
   46   0.0055044  -0.0049469  -0.0074621   0.1143130  -0.0643287  -0.0989014
   47   0.0154546  -0.0139559  -0.0224176  -0.0643287   0.1156882   0.0980975
   48  -0.0002820   0.0003221   0.0005494  -0.0989014   0.0980975   0.2032089
 Gradient time:  CPU 10583.04 s  wall 2959.30 s
 **********************************************************************
 **                                                                  **
 **                       VIBRATIONAL ANALYSIS                       **
 **                       --------------------                       **
 **                                                                  **
 **        VIBRATIONAL FREQUENCIES (CM**-1) AND NORMAL MODES         **
 **     FORCE CONSTANTS (mDYN/ANGSTROM) AND REDUCED MASSES (AMU)     **
 **                  INFRARED INTENSITIES (KM/MOL)                   **
 **                                                                  **
 **********************************************************************
 

 Mode:                 1                      2                      3
 Frequency:      -307.34                 234.09                 274.37
 Force Cnst:      0.0926                 0.0606                 0.0822
 Red. Mass:       1.6642                 1.8768                 1.8539
 IR Active:          YES                    YES                    YES
 IR Intens:       15.596                  1.348                  3.294
 Raman Active:       YES                    YES                    YES
               X      Y      Z        X      Y      Z        X      Y      Z
 C         -0.002  0.025 -0.114    0.022  0.090  0.017   -0.042 -0.061 -0.044
 C         -0.032  0.081  0.118    0.008 -0.021 -0.049   -0.030  0.008  0.055
 C          0.032 -0.023  0.093    0.067 -0.091  0.087    0.032  0.013 -0.083
 C         -0.011 -0.076 -0.078   -0.032  0.007 -0.031    0.071  0.166  0.109
 C         -0.004 -0.027 -0.035   -0.046 -0.119 -0.080   -0.006 -0.098 -0.052
 C          0.004  0.011 -0.019   -0.018  0.137  0.055   -0.016 -0.009  0.017
 H         -0.091 -0.003  0.262    0.180  0.089 -0.109   -0.340 -0.033 -0.016
 H         -0.001 -0.056 -0.180    0.003  0.224  0.073   -0.001 -0.285 -0.049
 H         -0.008  0.048  0.052   -0.030 -0.087 -0.125   -0.044  0.044  0.113
 H         -0.424  0.200  0.232    0.145 -0.049  0.164    0.063 -0.064 -0.170
 H          0.610 -0.294 -0.046    0.002 -0.185  0.115    0.135  0.070 -0.117
 H          0.047  0.202  0.154   -0.089 -0.059 -0.099    0.163  0.458  0.364
 H         -0.080  0.032  0.012    0.103 -0.362 -0.016    0.200 -0.291 -0.113
 H          0.080  0.008 -0.008   -0.250 -0.197 -0.282   -0.228 -0.195 -0.119
 H          0.063 -0.007 -0.012   -0.186  0.190  0.318   -0.023 -0.009  0.117
 H         -0.054 -0.014 -0.041    0.115  0.403 -0.026   -0.028  0.071 -0.039
 TransDip   0.051  0.023  0.113   -0.009 -0.015 -0.033    0.040 -0.005  0.042

 Mode:                 4                      5                      6
 Frequency:       354.46                 414.07                 629.43
 Force Cnst:      0.1759                 0.1814                 0.3270
 Red. Mass:       2.3769                 1.7953                 1.4009
 IR Active:          YES                    YES                    YES
 IR Intens:        1.913                 21.961                 13.122
 Raman Active:       YES                    YES                    YES
               X      Y      Z        X      Y      Z        X      Y      Z
 C          0.022  0.118  0.126   -0.097 -0.037  0.022    0.079 -0.063 -0.094
 C         -0.103  0.040  0.059    0.055  0.102 -0.010   -0.028  0.060 -0.032
 C          0.198 -0.046 -0.103    0.097  0.043  0.144    0.013  0.027  0.038
 C         -0.011 -0.018  0.036   -0.038  0.033 -0.019   -0.029 -0.074  0.010
 C         -0.054 -0.009 -0.030   -0.038 -0.017 -0.047   -0.037 -0.010  0.015
 C         -0.104 -0.078 -0.066    0.033 -0.041 -0.072   -0.031  0.001  0.002
 H          0.284  0.098  0.117   -0.368 -0.026  0.055    0.288 -0.084 -0.030
 H         -0.002  0.322  0.249   -0.062 -0.291 -0.115    0.022  0.163 -0.087
 H         -0.138  0.049  0.087   -0.014  0.078 -0.004   -0.124  0.102  0.081
 H          0.334 -0.168 -0.214    0.494 -0.001  0.211    0.503 -0.063  0.076
 H          0.404 -0.030 -0.161   -0.160 -0.041  0.226   -0.300 -0.009  0.132
 H         -0.006 -0.070 -0.003   -0.077 -0.230 -0.233    0.061  0.442  0.432
 H         -0.056  0.067 -0.108    0.031 -0.091 -0.062   -0.141  0.086  0.056
 H         -0.006  0.011  0.022   -0.129 -0.055 -0.059    0.112  0.051  0.039
 H          0.048 -0.123 -0.203    0.243 -0.109 -0.185   -0.010 -0.006  0.040
 H         -0.240 -0.239 -0.053   -0.098 -0.219 -0.048   -0.028  0.012  0.000
 TransDip   0.033 -0.026  0.015   -0.058 -0.046 -0.130    0.021  0.094  0.064

 Mode:                 7                      8                      9
 Frequency:       689.86                 713.52                 742.22
 Force Cnst:      0.5388                 0.6560                 0.7167
 Red. Mass:       1.9217                 2.1869                 2.2080
 IR Active:          YES                    YES                    YES
 IR Intens:       21.754                 20.576                 37.600
 Raman Active:       YES                    YES                    YES
               X      Y      Z        X      Y      Z        X      Y      Z
 C         -0.003  0.096 -0.058   -0.023  0.048 -0.055   -0.110  0.008  0.175
 C         -0.100  0.001  0.043    0.047 -0.108  0.235    0.024 -0.040 -0.063
 C         -0.118  0.007  0.006    0.022 -0.046  0.024   -0.098  0.020 -0.006
 C          0.041  0.029 -0.127   -0.069 -0.003 -0.077   -0.051 -0.049 -0.055
 C          0.108 -0.063  0.061   -0.027  0.036 -0.062   -0.034  0.027 -0.070
 C          0.012 -0.035  0.074    0.095  0.046 -0.039    0.185  0.020 -0.025
 H         -0.221  0.095  0.039    0.072  0.032 -0.001   -0.029  0.015  0.037
 H          0.050 -0.127 -0.024   -0.056  0.132 -0.140   -0.107  0.055  0.294
 H         -0.076  0.006  0.053   -0.117 -0.116  0.294    0.081 -0.048 -0.096
 H          0.664 -0.332 -0.165   -0.023 -0.324 -0.341    0.240 -0.090 -0.029
 H          0.221 -0.091 -0.080   -0.346  0.554  0.072    0.357 -0.197 -0.117
 H         -0.102 -0.063 -0.243   -0.028  0.094  0.008    0.235  0.429  0.405
 H          0.002  0.066  0.068   -0.060 -0.074  0.097   -0.143 -0.026  0.134
 H          0.185 -0.035  0.171   -0.072  0.019 -0.118   -0.006  0.038 -0.069
 H         -0.044 -0.015  0.173    0.096  0.045 -0.130    0.175  0.020 -0.058
 H          0.034  0.083  0.014   -0.002 -0.035 -0.049    0.199 -0.027  0.013
 TransDip   0.135 -0.064 -0.002   -0.051  0.058  0.123    0.163  0.045  0.099

 Mode:                10                     11                     12
 Frequency:       755.47                 793.28                 839.39
 Force Cnst:      0.6863                 0.6253                 0.7770
 Red. Mass:       2.0410                 1.6865                 1.8718
 IR Active:          YES                    YES                    YES
 IR Intens:       43.856                 11.591                  5.496
 Raman Active:       YES                    YES                    YES
               X      Y      Z        X      Y      Z        X      Y      Z
 C          0.110 -0.038 -0.059   -0.003  0.023  0.039    0.068  0.078  0.024
 C          0.060 -0.041  0.026    0.128 -0.069  0.026   -0.066  0.049 -0.021
 C         -0.133  0.041  0.027    0.028  0.082  0.053    0.008 -0.088 -0.053
 C         -0.018  0.001  0.164   -0.012  0.003 -0.009    0.006 -0.003  0.091
 C         -0.109  0.058 -0.015   -0.047 -0.031 -0.083   -0.087 -0.082  0.004
 C          0.014  0.043 -0.079   -0.097 -0.086 -0.019    0.126  0.029 -0.101
 H          0.144 -0.063  0.130   -0.156  0.054 -0.125   -0.284  0.063  0.357
 H          0.061  0.021 -0.292    0.007 -0.091 -0.042    0.117 -0.249 -0.078
 H         -0.015 -0.030  0.068    0.239 -0.094 -0.054   -0.174  0.037  0.008
 H          0.339 -0.191 -0.103    0.065 -0.001 -0.042   -0.128 -0.019 -0.008
 H          0.551 -0.143 -0.149    0.153  0.184  0.011   -0.334 -0.042  0.037
 H         -0.081 -0.355 -0.129    0.020  0.085  0.062   -0.069 -0.091  0.001
 H          0.032 -0.076 -0.060   -0.258  0.369 -0.230   -0.317  0.228 -0.002
 H         -0.205  0.020 -0.118    0.280  0.104  0.184    0.201  0.031  0.298
 H         -0.064  0.069 -0.132   -0.375  0.002  0.308    0.066  0.049  0.177
 H          0.137  0.004  0.021    0.069  0.311 -0.158    0.271  0.206 -0.123
 TransDip   0.182 -0.102 -0.037   -0.004  0.003 -0.109   -0.048  0.003  0.058

 Mode:                13                     14                     15
 Frequency:       911.12                 934.55                 954.20
 Force Cnst:      0.9600                 1.1703                 0.7899
 Red. Mass:       1.9627                 2.2744                 1.4725
 IR Active:          YES                    YES                    YES
 IR Intens:       13.599                 11.323                  2.080
 Raman Active:       YES                    YES                    YES
               X      Y      Z        X      Y      Z        X      Y      Z
 C          0.136  0.082  0.029   -0.005  0.102  0.042   -0.096  0.061 -0.020
 C          0.053 -0.003 -0.032    0.082 -0.011 -0.042    0.029  0.031  0.005
 C         -0.014 -0.041 -0.020   -0.015 -0.015 -0.004   -0.013 -0.041 -0.046
 C          0.052 -0.047 -0.073   -0.096 -0.104  0.077   -0.005 -0.033  0.037
 C         -0.119  0.067 -0.044    0.167 -0.039  0.103    0.050  0.073 -0.050
 C         -0.086 -0.001  0.129   -0.088  0.072 -0.121    0.000 -0.091  0.046
 H         -0.367  0.091  0.232   -0.305  0.109  0.142    0.145 -0.038  0.604
 H          0.233 -0.421 -0.037   -0.004 -0.158 -0.245   -0.167  0.157 -0.323
 H          0.113 -0.057 -0.119    0.058 -0.126 -0.192    0.147  0.050 -0.000
 H          0.007 -0.093 -0.077    0.028 -0.103 -0.099    0.102 -0.006  0.040
 H         -0.120  0.041  0.001   -0.002  0.093 -0.020   -0.235 -0.130  0.024
 H          0.109  0.132  0.076   -0.309  0.239  0.286    0.206 -0.084  0.071
 H         -0.115 -0.083  0.118    0.226 -0.165  0.149    0.254 -0.017 -0.228
 H         -0.128  0.076 -0.300    0.123 -0.052 -0.177   -0.065  0.025 -0.111
 H          0.053 -0.051 -0.131   -0.111  0.082 -0.288   -0.164 -0.039  0.186
 H         -0.049 -0.305  0.351   -0.242  0.039 -0.205    0.202  0.087  0.066
 TransDip   0.047 -0.002  0.108   -0.064  0.000 -0.087    0.013  0.011  0.043

 Mode:                16                     17                     18
 Frequency:       999.63                1034.87                1049.32
 Force Cnst:      1.0411                 0.8153                 1.1999
 Red. Mass:       1.7683                 1.2921                 1.8497
 IR Active:          YES                    YES                    YES
 IR Intens:       26.672                  3.981                 90.351
 Raman Active:       YES                    YES                    YES
               X      Y      Z        X      Y      Z        X      Y      Z
 C         -0.052  0.037 -0.047   -0.040 -0.026 -0.030   -0.051 -0.013  0.002
 C         -0.011 -0.000  0.003   -0.018  0.034 -0.079    0.161 -0.010  0.036
 C         -0.022 -0.012 -0.014    0.006 -0.009  0.094   -0.063 -0.048 -0.072
 C         -0.007 -0.021  0.140    0.047  0.018  0.003    0.059  0.075 -0.039
 C          0.042 -0.068 -0.130   -0.019 -0.037  0.019   -0.030 -0.079  0.022
 C          0.027  0.058  0.121   -0.011  0.033  0.013   -0.083  0.098 -0.015
 H         -0.081  0.069 -0.294    0.177 -0.093  0.346    0.205 -0.075  0.324
 H         -0.095  0.149 -0.117   -0.054  0.065  0.004   -0.067  0.097  0.039
 H          0.055 -0.043 -0.079   -0.009 -0.243 -0.457    0.180  0.080  0.152
 H          0.022 -0.011  0.005   -0.121 -0.285 -0.301    0.110  0.029  0.094
 H         -0.024 -0.058 -0.011    0.171  0.471  0.002   -0.133 -0.327 -0.030
 H         -0.082 -0.155  0.024    0.162 -0.018  0.013    0.216 -0.039 -0.078
 H         -0.182  0.239 -0.158   -0.016  0.050 -0.070   -0.282  0.026  0.254
 H          0.526  0.152 -0.303    0.016 -0.030  0.164    0.061 -0.051  0.264
 H          0.324 -0.042 -0.095    0.168 -0.023  0.026    0.225 -0.001 -0.059
 H         -0.204 -0.231  0.152   -0.082 -0.053  0.019   -0.435 -0.022 -0.166
 TransDip  -0.025 -0.024 -0.162    0.038 -0.000  0.051    0.120  0.058  0.274

 Mode:                19                     20                     21
 Frequency:      1111.23                1138.73                1166.71
 Force Cnst:      0.9437                 0.8996                 1.2679
 Red. Mass:       1.2971                 1.1775                 1.5810
 IR Active:          YES                    YES                    YES
 IR Intens:       10.628                  6.856                 20.113
 Raman Active:       YES                    YES                    YES
               X      Y      Z        X      Y      Z        X      Y      Z
 C         -0.048  0.067 -0.014   -0.017 -0.021 -0.044    0.006 -0.022  0.047
 C         -0.040 -0.021 -0.001   -0.036 -0.020  0.004    0.068  0.117 -0.066
 C          0.024  0.036  0.006    0.030  0.037  0.007   -0.034 -0.097  0.040
 C          0.088 -0.058  0.025    0.005  0.062  0.029   -0.019  0.034  0.011
 C         -0.027 -0.013  0.042    0.028 -0.016 -0.030    0.050  0.036 -0.040
 C         -0.004 -0.005 -0.031    0.009 -0.043 -0.012   -0.041 -0.076 -0.003
 H         -0.132  0.111 -0.335    0.083 -0.071  0.324    0.025  0.009 -0.194
 H         -0.113  0.106 -0.353    0.023  0.005  0.267   -0.046  0.050 -0.176
 H         -0.017 -0.057 -0.063    0.141 -0.055 -0.107   -0.290  0.297  0.311
 H          0.038  0.066  0.045    0.035  0.079  0.056   -0.205 -0.268 -0.227
 H         -0.020  0.043  0.021   -0.014  0.040  0.025    0.150  0.106 -0.040
 H          0.630 -0.220  0.078   -0.160 -0.012 -0.081    0.003 -0.031 -0.031
 H         -0.153 -0.135  0.353   -0.313 -0.112  0.527   -0.206 -0.091  0.431
 H         -0.064 -0.035  0.040    0.182  0.065 -0.319    0.061  0.051 -0.186
 H         -0.151  0.042 -0.108   -0.347  0.070 -0.197    0.095 -0.123  0.289
 H          0.056  0.006 -0.000    0.146 -0.006  0.054    0.059  0.106 -0.049
 TransDip   0.005 -0.047 -0.093    0.013 -0.011  0.082    0.036  0.040  0.133

 Mode:                22                     23                     24
 Frequency:      1193.12                1244.92                1286.84
 Force Cnst:      1.0730                 1.3910                 1.3343
 Red. Mass:       1.2793                 1.5233                 1.3676
 IR Active:          YES                    YES                    YES
 IR Intens:        0.827                  3.836                  4.632
 Raman Active:       YES                    YES                    YES
               X      Y      Z        X      Y      Z        X      Y      Z
 C         -0.046  0.007  0.023   -0.053  0.042 -0.125    0.003 -0.047  0.046
 C          0.052 -0.021 -0.036    0.072  0.056  0.008   -0.024  0.122  0.054
 C          0.004  0.009  0.015   -0.024 -0.042  0.012   -0.023 -0.077  0.005
 C          0.032  0.024 -0.036    0.027 -0.068  0.040    0.031  0.004 -0.020
 C         -0.005 -0.087  0.039   -0.042  0.009  0.069   -0.025 -0.028  0.009
 C         -0.049  0.046 -0.026   -0.011 -0.011 -0.044    0.015  0.015 -0.012
 H          0.063 -0.007  0.074   -0.246  0.064 -0.097    0.034 -0.008 -0.254
 H         -0.074  0.045 -0.088    0.070  0.107  0.804   -0.057  0.082 -0.165
 H         -0.356  0.114  0.303    0.093  0.131  0.107    0.682  0.181 -0.136
 H         -0.051  0.022  0.010    0.004 -0.130 -0.089   -0.042 -0.233 -0.187
 H          0.051  0.047 -0.001   -0.023  0.032  0.001   -0.074 -0.075  0.009
 H         -0.026  0.080 -0.013    0.193 -0.125  0.058   -0.138  0.076 -0.025
 H          0.036  0.099 -0.212    0.130  0.001 -0.145    0.001  0.032 -0.088
 H          0.175 -0.012 -0.014    0.039  0.053 -0.194    0.000 -0.021  0.071
 H         -0.154  0.083 -0.278   -0.011 -0.009  0.053   -0.282  0.120 -0.290
 H          0.478 -0.215  0.484    0.104  0.051 -0.011    0.142 -0.019  0.091
 TransDip   0.022  0.018  0.005   -0.047  0.013 -0.039    0.015 -0.015 -0.066

 Mode:                25                     26                     27
 Frequency:      1301.66                1344.20                1393.72
 Force Cnst:      1.3572                 1.6146                 1.5390
 Red. Mass:       1.3595                 1.5167                 1.3447
 IR Active:          YES                    YES                    YES
 IR Intens:        0.442                 22.120                  6.060
 Raman Active:       YES                    YES                    YES
               X      Y      Z        X      Y      Z        X      Y      Z
 C         -0.025 -0.012  0.012    0.015  0.011 -0.040   -0.010  0.026 -0.004
 C         -0.005  0.006  0.083   -0.004 -0.008 -0.012   -0.087 -0.105 -0.075
 C         -0.006  0.013 -0.031    0.002 -0.006  0.011    0.019 -0.013  0.039
 C          0.065 -0.015 -0.001   -0.055 -0.039  0.053    0.007  0.002  0.001
 C          0.002  0.023  0.014    0.102  0.022 -0.146   -0.012  0.001  0.027
 C         -0.086  0.014 -0.101   -0.053  0.038  0.007   -0.020  0.033 -0.037
 H          0.024 -0.001 -0.109   -0.156  0.023  0.009    0.070 -0.003  0.107
 H         -0.050  0.067 -0.038    0.042  0.049  0.225    0.011 -0.111 -0.090
 H          0.097 -0.249 -0.307    0.124  0.089  0.074    0.563  0.424  0.403
 H          0.074  0.058  0.055    0.024 -0.002  0.016    0.043  0.068  0.128
 H         -0.066 -0.083 -0.005    0.010  0.078  0.004    0.115  0.316 -0.003
 H         -0.251  0.093 -0.019    0.005 -0.072  0.063    0.010  0.006  0.009
 H         -0.035 -0.051  0.144   -0.073 -0.081  0.196    0.035 -0.023 -0.003
 H         -0.001  0.026 -0.116   -0.292 -0.191  0.720    0.080  0.045 -0.124
 H          0.460 -0.163  0.430    0.030  0.011 -0.061    0.289 -0.066  0.153
 H          0.399 -0.045  0.252    0.197 -0.127  0.280    0.013  0.009 -0.009
 TransDip   0.014  0.007  0.015    0.027  0.017  0.147    0.040 -0.015  0.066

 Mode:                28                     29                     30
 Frequency:      1406.97                1457.09                1479.22
 Force Cnst:      2.2267                 1.4559                 1.3990
 Red. Mass:       1.9092                 1.1639                 1.0852
 IR Active:          YES                    YES                    YES
 IR Intens:        1.551                 16.107                  2.688
 Raman Active:       YES                    YES                    YES
               X      Y      Z        X      Y      Z        X      Y      Z
 C         -0.082  0.030 -0.016    0.075 -0.069  0.022    0.023 -0.017  0.011
 C          0.022 -0.025 -0.048   -0.008 -0.015 -0.009   -0.001  0.002  0.002
 C          0.001  0.003  0.013   -0.002 -0.014 -0.008    0.001  0.001 -0.001
 C          0.223 -0.093  0.030   -0.016  0.027 -0.028   -0.027  0.020 -0.014
 C         -0.070  0.049 -0.031    0.016 -0.012  0.022   -0.057  0.017 -0.022
 C          0.042 -0.014  0.031    0.001  0.005 -0.003    0.010  0.011 -0.025
 H         -0.124  0.032  0.026   -0.595 -0.009  0.188   -0.105 -0.004  0.022
 H         -0.147  0.228 -0.063   -0.145  0.689 -0.056   -0.014  0.114 -0.007
 H         -0.142  0.078  0.157    0.028  0.001  0.000    0.005 -0.011 -0.018
 H          0.008  0.020  0.031    0.043  0.065  0.101   -0.007 -0.000 -0.005
 H          0.033  0.086 -0.002    0.032  0.116 -0.027    0.000 -0.015  0.000
 H         -0.731  0.220 -0.030    0.048  0.004 -0.035    0.058 -0.018 -0.023
 H         -0.009 -0.117  0.083   -0.075  0.142 -0.042    0.353 -0.514  0.071
 H         -0.131  0.012  0.212   -0.099 -0.046 -0.136    0.558  0.237  0.257
 H         -0.153  0.041 -0.013    0.009 -0.001  0.045   -0.144  0.048  0.218
 H         -0.222 -0.005 -0.145   -0.030 -0.031 -0.000   -0.099 -0.226  0.068
 TransDip   0.029  0.016  0.022   -0.102  0.065 -0.042    0.029 -0.026  0.035

 Mode:                31                     32                     33
 Frequency:      1492.86                1510.29                2922.66
 Force Cnst:      1.6850                 1.4931                 5.4001
 Red. Mass:       1.2833                 1.1110                 1.0730
 IR Active:          YES                    YES                    YES
 IR Intens:        8.275                  2.547                 28.484
 Raman Active:       YES                    YES                    YES
               X      Y      Z        X      Y      Z        X      Y      Z
 C         -0.004 -0.003  0.009    0.012 -0.008  0.000   -0.001  0.005  0.002
 C          0.027  0.060  0.032   -0.009 -0.020 -0.005    0.001 -0.000  0.001
 C         -0.054 -0.112 -0.055    0.014  0.029  0.010   -0.000 -0.000  0.000
 C         -0.004  0.003 -0.001    0.003  0.003 -0.006   -0.002 -0.000  0.001
 C         -0.014 -0.000 -0.006   -0.031  0.009 -0.010   -0.055 -0.035 -0.040
 C         -0.003 -0.019  0.023   -0.049 -0.032  0.054    0.003  0.006 -0.001
 H          0.081  0.001 -0.086   -0.101 -0.004  0.048   -0.008 -0.085 -0.012
 H          0.018 -0.079  0.011   -0.022  0.114 -0.005    0.029  0.010 -0.004
 H         -0.074 -0.076 -0.120   -0.007 -0.010  0.017   -0.001  0.004 -0.004
 H          0.237  0.298  0.544   -0.053 -0.053 -0.114   -0.000  0.001 -0.000
 H          0.163  0.591 -0.174   -0.039 -0.134  0.040   -0.000  0.000 -0.001
 H          0.001 -0.005 -0.007   -0.015  0.012 -0.010   -0.003  0.003 -0.005
 H          0.046 -0.066 -0.009    0.122 -0.196  0.027    0.647  0.551  0.490
 H          0.074  0.031  0.055    0.191  0.087  0.108    0.022 -0.114 -0.019
 H          0.005 -0.013 -0.187    0.379 -0.145 -0.497   -0.027 -0.088 -0.004
 H          0.072  0.156 -0.044    0.258  0.561 -0.146   -0.011  0.014  0.016
 TransDip   0.054  0.070 -0.025    0.029  0.007 -0.042   -0.136 -0.026 -0.101

 Mode:                34                     35                     36
 Frequency:      2940.35                2958.66                2997.81
 Force Cnst:      5.4426                 5.5827                 5.7466
 Red. Mass:       1.0685                 1.0824                 1.0853
 IR Active:          YES                    YES                    YES
 IR Intens:       17.161                 48.974                 14.843
 Raman Active:       YES                    YES                    YES
               X      Y      Z        X      Y      Z        X      Y      Z
 C          0.011 -0.072 -0.011   -0.000 -0.008 -0.002    0.000  0.000 -0.000
 C         -0.002  0.005 -0.006    0.017 -0.064  0.046   -0.002  0.006 -0.004
 C         -0.000  0.000  0.001   -0.000  0.001 -0.003    0.000  0.000  0.000
 C         -0.000 -0.001 -0.000    0.000  0.000 -0.000    0.000  0.001 -0.002
 C         -0.005 -0.003 -0.004    0.001 -0.001  0.000    0.026 -0.074 -0.005
 C         -0.001 -0.001  0.001    0.007  0.012 -0.003    0.009  0.026 -0.004
 H          0.097  0.947  0.113    0.009  0.098  0.018    0.001 -0.000 -0.001
 H         -0.226 -0.076  0.031   -0.003 -0.003  0.001   -0.009 -0.002  0.001
 H          0.022 -0.074  0.052   -0.212  0.765 -0.559    0.021 -0.069  0.051
 H          0.004  0.000 -0.002    0.007 -0.016  0.006   -0.000 -0.002  0.001
 H         -0.003  0.002  0.001    0.000  0.004  0.032   -0.001 -0.000 -0.006
 H          0.001 -0.002 -0.009   -0.000 -0.000  0.002   -0.002 -0.015  0.020
 H          0.062  0.051  0.046   -0.008 -0.009 -0.008    0.052  0.015  0.031
 H          0.002 -0.010 -0.001   -0.008  0.022  0.002   -0.354  0.858  0.048
 H          0.011  0.020  0.000   -0.052 -0.180 -0.005   -0.101 -0.323 -0.009
 H          0.003 -0.004 -0.008   -0.026  0.033  0.046   -0.016  0.026  0.034
 TransDip  -0.025 -0.075 -0.107    0.065 -0.176  0.123    0.121 -0.018  0.016

 Mode:                37                     38                     39
 Frequency:      3003.60                3019.47                3070.80
 Force Cnst:      5.6845                 5.8602                 6.1149
 Red. Mass:       1.0695                 1.0909                 1.1006
 IR Active:          YES                    YES                    YES
 IR Intens:       67.933                 16.671                 13.483
 Raman Active:       YES                    YES                    YES
               X      Y      Z        X      Y      Z        X      Y      Z
 C         -0.008 -0.003  0.001   -0.078 -0.036  0.010   -0.002 -0.001  0.000
 C          0.004 -0.012  0.008   -0.001  0.002 -0.003   -0.000 -0.002  0.000
 C         -0.000  0.001 -0.001    0.000  0.001 -0.000    0.000  0.001  0.000
 C          0.000  0.000 -0.001    0.001  0.001 -0.002    0.001  0.001 -0.000
 C          0.004 -0.029 -0.007    0.000  0.002  0.001    0.002 -0.008 -0.001
 C         -0.036 -0.050  0.023    0.003  0.006 -0.001    0.028 -0.065 -0.057
 H         -0.005  0.009  0.004   -0.007  0.220  0.035   -0.002  0.005  0.002
 H          0.095  0.025 -0.015    0.926  0.225 -0.147    0.017  0.005 -0.004
 H         -0.041  0.136 -0.100    0.008 -0.030  0.023   -0.002  0.010 -0.008
 H          0.002  0.001 -0.001   -0.001 -0.013  0.011   -0.000 -0.002  0.002
 H          0.000  0.001  0.010   -0.001  0.001 -0.004    0.001  0.001 -0.002
 H         -0.002 -0.004  0.011   -0.011 -0.018  0.037   -0.004 -0.010  0.011
 H          0.078  0.055  0.061   -0.016 -0.010 -0.009    0.016  0.011  0.011
 H         -0.125  0.300  0.014    0.013 -0.025 -0.003   -0.037  0.088  0.001
 H          0.244  0.792  0.018   -0.026 -0.086 -0.003    0.118  0.346 -0.004
 H          0.177 -0.198 -0.279   -0.008  0.011  0.014   -0.442  0.437  0.679
 TransDip  -0.102 -0.197  0.143   -0.114  0.034  0.055    0.060 -0.085 -0.055

 Mode:                40                     41                     42
 Frequency:      3107.43                3176.85                3205.43
 Force Cnst:      5.9865                 6.4915                 6.7672
 Red. Mass:       1.0523                 1.0917                 1.1178
 IR Active:          YES                    YES                    YES
 IR Intens:        3.822                  5.876                  6.329
 Raman Active:       YES                    YES                    YES
               X      Y      Z        X      Y      Z        X      Y      Z
 C         -0.001 -0.000  0.001    0.006 -0.001  0.001    0.001  0.000  0.000
 C          0.002  0.004  0.001   -0.000  0.000  0.001   -0.001  0.003 -0.002
 C         -0.030 -0.051 -0.023    0.001  0.000  0.001   -0.004  0.040 -0.091
 C          0.000  0.001 -0.001    0.021  0.051 -0.067    0.000  0.000 -0.001
 C          0.000 -0.000  0.000   -0.003  0.002  0.001    0.000  0.000 -0.000
 C          0.001  0.000 -0.000   -0.000  0.000  0.001   -0.000 -0.000  0.000
 H          0.000  0.001 -0.003    0.000 -0.006  0.000   -0.002 -0.003 -0.002
 H          0.012  0.003 -0.003   -0.041 -0.006  0.004   -0.010 -0.001  0.003
 H          0.001 -0.013  0.003   -0.000 -0.002 -0.001    0.006 -0.026  0.019
 H          0.131  0.528 -0.435   -0.001 -0.001  0.001   -0.142 -0.549  0.433
 H          0.193  0.049  0.686   -0.004 -0.002 -0.014    0.185  0.065  0.665
 H         -0.003 -0.007  0.009   -0.245 -0.587  0.765   -0.002 -0.005  0.007
 H         -0.000  0.001 -0.002    0.003  0.002  0.000    0.001  0.000  0.001
 H         -0.001  0.002 -0.000    0.013 -0.023 -0.003    0.001 -0.000 -0.000
 H         -0.003 -0.005 -0.001   -0.002 -0.003 -0.001   -0.000  0.001 -0.000
 H         -0.004  0.003  0.003    0.006 -0.004 -0.009   -0.000 -0.000 -0.001
 TransDip  -0.025 -0.050  0.028    0.055  0.055  0.004    0.026  0.037 -0.066

 STANDARD THERMODYNAMIC QUANTITIES AT   298.15 K  AND     1.00 ATM

   This Molecule has  1 Imaginary Frequencies
   Zero point vibrational energy:       87.568 kcal/mol

   Atom    1 Element C  Has Mass   12.00000
   Atom    2 Element C  Has Mass   12.00000
   Atom    3 Element C  Has Mass   12.00000
   Atom    4 Element C  Has Mass   12.00000
   Atom    5 Element C  Has Mass   12.00000
   Atom    6 Element C  Has Mass   12.00000
   Atom    7 Element H  Has Mass    1.00783
   Atom    8 Element H  Has Mass    1.00783
   Atom    9 Element H  Has Mass    1.00783
   Atom   10 Element H  Has Mass    1.00783
   Atom   11 Element H  Has Mass    1.00783
   Atom   12 Element H  Has Mass    1.00783
   Atom   13 Element H  Has Mass    1.00783
   Atom   14 Element H  Has Mass    1.00783
   Atom   15 Element H  Has Mass    1.00783
   Atom   16 Element H  Has Mass    1.00783
   Molecular Mass:    82.078300 amu
   Principal axes and moments of inertia in amu*Bohr^2:
                             1           2           3
    Eigenvalues --      340.08111   501.51921   634.51875
          X               0.65136     0.75653    -0.05830
          Y               0.07028     0.01635     0.99739
          Z               0.75551    -0.65376    -0.04252
   Rotational Symmetry Number is   1
   The Molecule is an Asymmetric Top
   Translational Enthalpy:        0.889 kcal/mol
   Rotational Enthalpy:           0.889 kcal/mol
   Vibrational Enthalpy:         89.279 kcal/mol
   gas constant (RT):             0.592 kcal/mol
   Translational Entropy:        39.129  cal/mol.K
   Rotational Entropy:           26.184  cal/mol.K
   Vibrational Entropy:           8.403  cal/mol.K

   Total Enthalpy:               91.649 kcal/mol
   Total Entropy:                73.716  cal/mol.K
Archival summary:
1\1\nid00485\FREQ\ProcedureUnspecified\BasisUnspecified\610\cgrambow\TueFeb1912:27:102019TueFeb1912:27:102019\0\\#,FREQ,ProcedureUnspecified,BasisUnspecified,\\0,1\C\H,1,1.10526\C,1,1.44365,2,110.623\H,3,1.08937,1,120.203,2,156.582,0\H,3,1.08963,1,121.828,2,-24.0727,0\C,1,1.58067,2,107.408,3,-132.395,0\H,6,1.09765,1,111.264,2,86.1783,0\H,6,1.10139,1,108.111,2,-31.8835,0\C,6,1.55101,1,106.465,2,-150.468,0\H,9,1.10153,6,114.409,1,-107.262,0\H,9,1.1091,6,108.097,1,135.707,0\C,9,1.48965,6,104.183,1,15.6177,0\H,12,1.08817,9,123.239,6,-160.84,0\C,12,1.44483,9,112.159,6,10.9352,0\H,14,1.10166,12,115.182,9,-156.318,0\H,14,1.10794,12,115.643,9,77.4486,0\\\@

 Total job time:  3007.80s(wall), 11336.22s(cpu) 
 Tue Feb 19 12:27:10 2019

        *************************************************************
        *                                                           *
        *  Thank you very much for using Q-Chem.  Have a nice day.  *
        *                                                           *
        *************************************************************



Running Job 2 of 3 ts_optfreq0153.in
qchem ts_optfreq0153.in_1212.1 /tmp/qchem1212/ 1
/global/common/cori/software/qchem/5.1/exe/qcprog.exe ts_optfreq0153.in_1212.1 /tmp/qchem1212/
Check license passed

                  Welcome to Q-Chem
     A Quantum Leap Into The Future Of Chemistry


 Q-Chem 5.1, Q-Chem, Inc., Pleasanton, CA (2018)

 Yihan Shao,  Zhengting Gan,  E. Epifanovsky,  A. T. B. Gilbert,  M. Wormit,  
 J. Kussmann,  A. W. Lange,  A. Behn,  Jia Deng,  Xintian Feng,  D. Ghosh,  
 M. Goldey,  P. R. Horn,  L. D. Jacobson,  I. Kaliman,  T. Kus,  A. Landau,  
 Jie Liu,  E. I. Proynov,  R. M. Richard,  R. P. Steele,  E. J. Sundstrom,  
 H. L. Woodcock III,  P. M. Zimmerman,  D. Zuev,  B. Albrecht,  E. Alguire,  
 S. A. Baeppler,  D. Barton,  Z. Benda,  Y. A. Bernard,  E. J. Berquist,  
 K. B. Bravaya,  H. Burton,  D. Casanova,  Chun-Min Chang,  Yunqing Chen,  
 A. Chien,  K. D. Closser,  M. P. Coons,  S. Coriani,  S. Dasgupta,  
 A. L. Dempwolff,  M. Diedenhofen,  Hainam Do,  R. G. Edgar,  Po-Tung Fang,  
 S. Faraji,  S. Fatehi,  Qingguo Feng,  K. D. Fenk,  J. Fosso-Tande,  
 Qinghui Ge,  A. Ghysels,  G. Gidofalvi,  J. Gomes,  J. Gonthier,  A. Gunina,  
 D. Hait,  M. W. D. Hanson-Heine,  P. H. P. Harbach,  A. W. Hauser,  
 J. E. Herr,  E. G. Hohenstein,  Z. C. Holden,  Kerwin Hui,  B. C. Huynh,  
 T.-C. Jagau,  Hyunjun Ji,  B. Kaduk,  K. Khistyaev,  Jaehoon Kim,  
 P. Klunzinger,  K. Koh,  D. Kosenkov,  L. Koulias,  T. Kowalczyk,  
 C. M. Krauter,  A. Kunitsa,  Ka Un Lao,  A. Laurent,  K. V. Lawler,  
 Joonho Lee,  D. Lefrancois,  S. Lehtola,  D. S. Levine,  Yi-Pei Li,  
 You-Sheng Lin,  Fenglai Liu,  E. Livshits,  A. Luenser,  P. Manohar,  
 E. Mansoor,  S. F. Manzer,  Shan-Ping Mao,  Yuezhi Mao,  N. Mardirossian,  
 A. V. Marenich,  T. Markovich,  L. A. Martinez-Martinez,  S. A. Maurer,  
 N. J. Mayhall,  S. C. McKenzie,  J.-M. Mewes,  A. F. Morrison,  
 J. W. Mullinax,  K. Nanda,  T. S. Nguyen-Beck,  R. Olivares-Amaya,  
 J. A. Parkhill,  T. M. Perrine,  F. Plasser,  P. Pokhilko,  S. Prager,  
 A. Prociuk,  E. Ramos,  D. R. Rehn,  F. Rob,  M. Schneider,  N. Sergueev,  
 S. M. Sharada,  S. Sharma,  D. W. Small,  T. Stauch,  T. Stein,  
 Yu-Chuan Su,  A. J. W. Thom,  A. Tkatchenko,  T. Tsuchimochi,  N. M. Tubman,  
 L. Vogt,  M. L. Vidal,  O. Vydrov,  M. A. Watson,  J. Wenzel,  
 M. de Wergifosse,  T. A. Wesolowski,  A. White,  J. Witte,  A. Yamada,  
 Jun Yang,  K. Yao,  S. Yeganeh,  S. R. Yost,  Zhi-Qiang You,  A. Zech,  
 Igor Ying Zhang,  Xing Zhang,  Yan Zhao,  Ying Zhu,  B. R. Brooks,  
 G. K. L. Chan,  C. J. Cramer,  M. S. Gordon,  W. J. Hehre,  A. Klamt,  
 M. W. Schmidt,  C. D. Sherrill,  D. G. Truhlar,  A. Aspuru-Guzik,  R. Baer,  
 A. T. Bell,  N. A. Besley,  Jeng-Da Chai,  R. A. DiStasio Jr.,  A. Dreuw,  
 B. D. Dunietz,  T. R. Furlani,  Chao-Ping Hsu,  Yousung Jung,  Jing Kong,  
 D. S. Lambrecht,  WanZhen Liang,  C. Ochsenfeld,  V. A. Rassolov,  
 L. V. Slipchenko,  J. E. Subotnik,  T. Van Voorhis,  J. M. Herbert,  
 A. I. Krylov,  P. M. W. Gill,  M. Head-Gordon

 Contributors to earlier versions of Q-Chem not listed above: 
 R. D. Adamson,  B. Austin,  J. Baker,  G. J. O. Beran,  K. Brandhorst,  
 S. T. Brown,  E. F. C. Byrd,  A. K. Chakraborty,  C.-L. Cheng,  
 Siu Hung Chien,  D. M. Chipman,  D. L. Crittenden,  H. Dachsel,  
 R. J. Doerksen,  A. D. Dutoi,  L. Fusti-Molnar,  W. A. Goddard III,  
 A. Golubeva-Zadorozhnaya,  S. R. Gwaltney,  G. Hawkins,  A. Heyden,  
 S. Hirata,  G. Kedziora,  F. J. Keil,  C. Kelley,  Jihan Kim,  R. A. King,  
 R. Z. Khaliullin,  P. P. Korambath,  W. Kurlancheek,  A. M. Lee,  M. S. Lee,  
 S. V. Levchenko,  Ching Yeh Lin,  D. Liotard,  R. C. Lochan,  I. Lotan,  
 P. E. Maslen,  N. Nair,  D. P. O'Neill,  D. Neuhauser,  E. Neuscamman,  
 C. M. Oana,  R. Olson,  B. Peters,  R. Peverati,  P. A. Pieniazek,  
 Y. M. Rhee,  J. Ritchie,  M. A. Rohrdanz,  E. Rosta,  N. J. Russ,  
 H. F. Schaefer III,  N. E. Schultz,  N. Shenvi,  A. C. Simmonett,  A. Sodt,  
 D. Stuck,  K. S. Thanthiriwatte,  V. Vanovschi,  Tao Wang,  A. Warshel,  
 C. F. Williams,  Q. Wu,  X. Xu,  W. Zhang

 Please cite Q-Chem as follows:
 Y. Shao et al., Mol. Phys. 113, 184-215 (2015)
 DOI: 10.1080/00268976.2014.952696

 Q-Chem 5.1.0 for Intel X86 EM64T Linux

 Parts of Q-Chem use Armadillo 8.300.2 (Tropical Shenanigans).
 http://arma.sourceforge.net/

 Q-Chem begins on Tue Feb 19 12:27:10 2019  

Host: cori01
0

     Scratch files written to /tmp/qchem1212//
 Jun2518 |scratch|qcdevops|jenkins|workspace|build_RNUM -1
Processing $rem in /global/common/cori/software/qchem/5.1/config/preferences.
 MEM_TOTAL  96000 
The previous job contains 0 fragments, simply inherited here

Checking the input file for inconsistencies... 	...done.

--------------------------------------------------------------
User input:
[...]

 Mode:                16                     17                     18
 Frequency:      1014.10                1026.58                1064.54
 Force Cnst:      1.1249                 0.7830                 1.1064
 Red. Mass:       1.8565                 1.2610                 1.6571
 IR Active:          YES                    YES                    YES
 IR Intens:        6.100                  2.133                 57.567
 Raman Active:       YES                    YES                    YES
               X      Y      Z        X      Y      Z        X      Y      Z
 C         -0.074  0.050 -0.040   -0.021 -0.039 -0.046   -0.029 -0.009 -0.014
 C          0.000  0.001  0.007   -0.041  0.020 -0.047    0.129 -0.045  0.039
 C         -0.026 -0.028 -0.035    0.008  0.009  0.088   -0.038 -0.016 -0.069
 C         -0.019 -0.017  0.122    0.042  0.035 -0.010    0.050  0.072 -0.036
 C          0.059 -0.055 -0.146   -0.025 -0.037  0.016   -0.033 -0.073  0.028
 C          0.023  0.043  0.139    0.002  0.032  0.011   -0.073  0.095 -0.024
 H         -0.004  0.026  0.066    0.181 -0.116  0.328    0.164 -0.086  0.380
 H         -0.121  0.193 -0.154   -0.009  0.056  0.114   -0.012  0.034  0.118
 H          0.164 -0.078 -0.138    0.027 -0.311 -0.465    0.211  0.031  0.101
 H          0.052 -0.004  0.026   -0.068 -0.295 -0.254    0.134  0.115  0.141
 H         -0.126 -0.106  0.005    0.152  0.473 -0.032   -0.157 -0.301  0.014
 H         -0.067 -0.139 -0.000    0.124  0.003 -0.012    0.191  0.004 -0.050
 H         -0.132  0.253 -0.244   -0.040  0.041 -0.039   -0.255 -0.033  0.237
 H          0.537  0.190 -0.257   -0.019 -0.047  0.187   -0.017 -0.084  0.287
 H          0.321 -0.043 -0.005    0.147 -0.009  0.032    0.113  0.043 -0.115
 H         -0.193 -0.209  0.137   -0.082 -0.038 -0.008   -0.445 -0.005 -0.220
 TransDip   0.002 -0.002 -0.079    0.024 -0.015  0.038    0.094  0.037  0.221

 Mode:                19                     20                     21
 Frequency:      1118.94                1142.33                1159.65
 Force Cnst:      0.8523                 0.9528                 1.1476
 Red. Mass:       1.1553                 1.2393                 1.4484
 IR Active:          YES                    YES                    YES
 IR Intens:        3.707                  2.973                 44.456
 Raman Active:       YES                    YES                    YES
               X      Y      Z        X      Y      Z        X      Y      Z
 C          0.022 -0.061 -0.038   -0.037  0.013 -0.043   -0.036 -0.010  0.018
 C          0.012 -0.011  0.019   -0.068 -0.016  0.029    0.094  0.041 -0.094
 C          0.004  0.010 -0.005    0.042  0.053 -0.003   -0.025 -0.050  0.053
 C         -0.054  0.049 -0.008    0.032  0.014  0.045    0.010  0.063  0.002
 C          0.013  0.019 -0.024    0.015 -0.014 -0.012    0.042 -0.041 -0.019
 C          0.017 -0.016  0.004    0.025 -0.047 -0.027   -0.068 -0.020 -0.008
 H          0.075 -0.100  0.297   -0.042  0.016  0.009    0.112 -0.052  0.154
 H          0.135 -0.116  0.618   -0.024  0.076  0.131   -0.061  0.046 -0.080
 H          0.094  0.011  0.021    0.197 -0.126 -0.197   -0.392  0.309  0.400
 H          0.023  0.046  0.037    0.077  0.131  0.084   -0.162 -0.200 -0.154
 H         -0.016 -0.040  0.011   -0.052  0.027  0.035    0.173  0.142 -0.040
 H         -0.585  0.193 -0.081    0.159 -0.134 -0.041   -0.051  0.047 -0.037
 H          0.056  0.050 -0.109   -0.330 -0.196  0.550   -0.245 -0.053  0.306
 H          0.074  0.062 -0.167    0.139  0.062 -0.248    0.233  0.064 -0.170
 H         -0.083  0.013 -0.029   -0.395  0.078 -0.230   -0.049 -0.026 -0.029
 H          0.063 -0.000  0.027    0.170  0.020  0.034    0.225 -0.065  0.221
 TransDip  -0.017  0.021  0.055   -0.006 -0.050 -0.023    0.075  0.063  0.190

 Mode:                22                     23                     24
 Frequency:      1196.12                1243.82                1295.85
 Force Cnst:      1.1586                 1.3626                 1.3186
 Red. Mass:       1.3745                 1.4948                 1.3328
 IR Active:          YES                    YES                    YES
 IR Intens:       10.293                  7.129                  0.807
 Raman Active:       YES                    YES                    YES
               X      Y      Z        X      Y      Z        X      Y      Z
 C         -0.045  0.021 -0.007   -0.039  0.077 -0.112   -0.025  0.003 -0.001
 C          0.004 -0.061  0.012    0.077  0.024 -0.028    0.023 -0.022  0.064
 C          0.023  0.055 -0.008   -0.021 -0.029  0.015   -0.002  0.030 -0.038
 C          0.037 -0.009 -0.029   -0.004 -0.083  0.050    0.044 -0.010  0.000
 C         -0.027 -0.102  0.054   -0.028  0.009  0.066    0.011  0.021  0.023
 C         -0.021  0.077 -0.024   -0.010 -0.010 -0.028   -0.094  0.009 -0.097
 H         -0.003  0.011  0.035   -0.315  0.135 -0.056    0.002  0.001 -0.031
 H         -0.046  0.054  0.041    0.066  0.097  0.662   -0.032  0.062  0.022
 H         -0.151 -0.068  0.056   -0.073  0.100  0.121   -0.194 -0.312 -0.210
 H          0.055  0.156  0.103    0.007 -0.114 -0.061    0.074  0.134  0.100
 H         -0.017  0.007  0.017   -0.007  0.063 -0.009   -0.042 -0.067 -0.007
 H          0.076  0.029  0.021    0.408 -0.245  0.070   -0.125  0.052 -0.005
 H          0.162  0.164 -0.412    0.147  0.008 -0.119   -0.039 -0.062  0.160
 H          0.101 -0.051  0.133    0.040  0.054 -0.173    0.024  0.038 -0.152
 H         -0.215  0.148 -0.408    0.063 -0.034  0.097    0.505 -0.182  0.474
 H          0.397 -0.222  0.433   -0.042  0.072 -0.099    0.332 -0.029  0.217
 TransDip  -0.013 -0.013 -0.101   -0.048  0.007 -0.070    0.007  0.017  0.022

 Mode:                25                     26                     27
 Frequency:      1303.51                1345.29                1411.41
 Force Cnst:      1.5002                 1.6816                 1.6425
 Red. Mass:       1.4986                 1.5770                 1.3994
 IR Active:          YES                    YES                    YES
 IR Intens:        0.684                  9.719                  3.478
 Raman Active:       YES                    YES                    YES
               X      Y      Z        X      Y      Z        X      Y      Z
 C         -0.019 -0.027  0.020    0.017  0.015 -0.036    0.004  0.021 -0.007
 C          0.015  0.133  0.058    0.002 -0.009 -0.012   -0.101 -0.118 -0.057
 C         -0.040 -0.097  0.006    0.001 -0.001  0.008    0.023  0.001  0.034
 C          0.052 -0.014 -0.007   -0.057 -0.053  0.054   -0.037  0.015 -0.000
 C         -0.025 -0.019  0.027    0.112  0.042 -0.149    0.004 -0.007  0.024
 C         -0.038  0.023 -0.064   -0.056  0.031  0.012   -0.024  0.036 -0.044
 H         -0.020  0.002 -0.217   -0.182  0.054 -0.001    0.114 -0.020  0.090
 H         -0.048  0.122 -0.020    0.041  0.056  0.206    0.034 -0.186 -0.045
 H          0.725  0.210 -0.100    0.075  0.056  0.044    0.533  0.367  0.308
 H         -0.033 -0.320 -0.204    0.029  0.002  0.017    0.080  0.164  0.199
 H         -0.120 -0.103  0.017    0.007  0.064 -0.002    0.147  0.349 -0.042
 H         -0.142  0.072 -0.002   -0.027 -0.087  0.052    0.134 -0.037  0.021
 H          0.015  0.013 -0.045   -0.067 -0.110  0.198    0.041 -0.016 -0.003
 H          0.010 -0.002 -0.001   -0.320 -0.234  0.711    0.096  0.043 -0.106
 H         -0.018  0.027 -0.068    0.044  0.003 -0.042    0.311 -0.062  0.149
 H          0.280 -0.007  0.169    0.178 -0.119  0.265    0.073  0.007  0.030
 TransDip   0.022 -0.000  0.015    0.007  0.002  0.100    0.039 -0.018  0.041

 Mode:                28                     29                     30
 Frequency:      1428.23                1478.49                1489.79
 Force Cnst:      2.0458                 1.4790                 1.7622
 Red. Mass:       1.7022                 1.1484                 1.3476
 IR Active:          YES                    YES                    YES
 IR Intens:        1.207                 12.000                  5.261
 Raman Active:       YES                    YES                    YES
               X      Y      Z        X      Y      Z        X      Y      Z
 C         -0.054  0.012 -0.013    0.049 -0.050  0.013   -0.084  0.078 -0.028
 C         -0.011 -0.056 -0.055   -0.008 -0.006  0.000    0.011  0.006 -0.002
 C          0.006  0.001  0.014   -0.002 -0.010 -0.005   -0.006 -0.005 -0.001
 C          0.199 -0.081  0.017   -0.028  0.024 -0.015    0.085 -0.062  0.037
 C         -0.068  0.035 -0.004    0.060 -0.025  0.030   -0.008  0.012 -0.009
 C          0.034  0.000  0.009   -0.016 -0.009  0.021   -0.022 -0.032  0.051
 H         -0.340  0.068  0.119   -0.305  0.019  0.106    0.397 -0.019 -0.132
 H         -0.160  0.495 -0.071   -0.030  0.347 -0.027    0.015 -0.431  0.036
 H          0.019  0.130  0.161    0.019  0.000 -0.001   -0.054 -0.004  0.011
 H          0.053  0.099  0.119    0.026  0.045  0.060    0.023  0.017  0.032
 H          0.077  0.203 -0.034    0.021  0.064 -0.022    0.006  0.047 -0.012
 H         -0.536  0.172 -0.024    0.065  0.001 -0.006   -0.193  0.030  0.031
 H          0.006 -0.083  0.044   -0.323  0.447 -0.076   -0.112  0.101  0.002
 H         -0.100  0.015  0.084   -0.400 -0.204 -0.306   -0.205 -0.078  0.002
 H         -0.081  0.020  0.093    0.175 -0.047 -0.207    0.252 -0.076 -0.418
 H         -0.185 -0.067 -0.102    0.104  0.228 -0.046    0.154  0.453 -0.128
 TransDip  -0.007  0.032 -0.013   -0.072  0.065 -0.054    0.071  0.001 -0.018

 Mode:                31                     32                     33
 Frequency:      1506.13                1520.97                3000.63
 Force Cnst:      1.5676                 1.9422                 5.7397
 Red. Mass:       1.1729                 1.4249                 1.0820
 IR Active:          YES                    YES                    YES
 IR Intens:        4.618                  5.088                 62.740
 Raman Active:       YES                    YES                    YES
               X      Y      Z        X      Y      Z        X      Y      Z
 C          0.044 -0.044  0.018   -0.006 -0.001  0.011   -0.001  0.002 -0.001
 C          0.004  0.016  0.013    0.045  0.092  0.034    0.017 -0.062  0.050
 C         -0.014 -0.032 -0.017   -0.066 -0.136 -0.051   -0.000  0.000 -0.003
 C         -0.030  0.031 -0.024   -0.009  0.003  0.002    0.000 -0.000 -0.000
 C         -0.048  0.008 -0.015    0.010 -0.006 -0.000   -0.002 -0.001 -0.002
 C         -0.035 -0.031  0.041    0.021 -0.000 -0.007    0.005  0.008 -0.002
 H         -0.218  0.008  0.055    0.106 -0.011 -0.105   -0.007 -0.031  0.002
 H         -0.013  0.248 -0.018    0.017 -0.114  0.015    0.020  0.004 -0.002
 H         -0.035 -0.049 -0.048   -0.071 -0.072 -0.132   -0.214  0.740 -0.611
 H          0.054  0.100  0.142    0.227  0.311  0.516    0.007 -0.011  0.004
 H          0.046  0.132 -0.060    0.172  0.540 -0.229    0.002  0.007  0.035
 H          0.053  0.004 -0.031    0.014 -0.016 -0.005   -0.001  0.000  0.004
 H          0.264 -0.342  0.028   -0.045  0.071 -0.024    0.019  0.018  0.016
 H          0.371  0.180  0.198   -0.057 -0.034 -0.021   -0.000  0.001  0.000
 H          0.246 -0.082 -0.368   -0.225  0.062  0.092   -0.034 -0.135 -0.008
 H          0.171  0.412 -0.088   -0.068 -0.169  0.039   -0.025  0.027  0.041
 TransDip   0.033  0.049 -0.036    0.033  0.063 -0.010    0.052 -0.190  0.159

 Mode:                34                     35                     36
 Frequency:      3014.67                3028.02                3062.12
 Force Cnst:      5.7376                 5.7763                 5.8928
 Red. Mass:       1.0715                 1.0693                 1.0667
 IR Active:          YES                    YES                    YES
 IR Intens:       31.991                 20.866                 62.386
 Raman Active:       YES                    YES                    YES
               X      Y      Z        X      Y      Z        X      Y      Z
 C         -0.001  0.007  0.002    0.004 -0.074 -0.008   -0.001  0.001  0.000
 C         -0.000  0.003 -0.003    0.001 -0.004  0.000    0.004 -0.009  0.007
 C         -0.000 -0.000  0.000   -0.000  0.000  0.000   -0.000  0.000 -0.001
 C         -0.001 -0.000  0.000   -0.002  0.000 -0.001    0.000 -0.000  0.000
 C         -0.051 -0.033 -0.043   -0.006 -0.003 -0.005   -0.009 -0.001 -0.008
 C          0.005  0.009 -0.002   -0.000  0.001  0.001   -0.037 -0.056  0.023
 H         -0.021 -0.103 -0.013    0.197  0.934  0.087   -0.007 -0.020  0.001
 H          0.029  0.007 -0.004   -0.240 -0.056  0.033    0.023  0.006 -0.003
 H          0.012 -0.042  0.035   -0.006  0.023 -0.022   -0.034  0.103 -0.086
 H         -0.001  0.002 -0.001    0.004 -0.002 -0.000    0.002  0.004 -0.003
 H          0.000 -0.000 -0.003   -0.002  0.002  0.004    0.001  0.001  0.011
 H         -0.002  0.004 -0.006    0.002  0.002 -0.011   -0.000  0.004 -0.001
 H          0.575  0.559  0.536    0.067  0.064  0.061    0.083  0.081  0.082
 H          0.051 -0.152 -0.024    0.007 -0.020 -0.002    0.026 -0.059 -0.008
 H         -0.037 -0.136 -0.008    0.006 -0.000  0.000    0.232  0.853  0.044
 H         -0.022  0.023  0.032    0.002 -0.002 -0.006    0.198 -0.193 -0.299
 TransDip  -0.135  0.001 -0.121   -0.029 -0.106 -0.097   -0.147 -0.178  0.104

 Mode:                37                     38                     39
 Frequency:      3097.80                3126.28                3133.31
 Force Cnst:      6.1658                 6.3373                 6.3303
 Red. Mass:       1.0905                 1.1005                 1.0944
 IR Active:          YES                    YES                    YES
 IR Intens:       14.867                 23.060                 11.210
 Raman Active:       YES                    YES                    YES
               X      Y      Z        X      Y      Z        X      Y      Z
 C         -0.002 -0.001 -0.000    0.011  0.004 -0.001   -0.082 -0.030  0.010
 C         -0.000  0.000  0.000   -0.000 -0.001 -0.000   -0.000  0.000 -0.002
 C         -0.000  0.000 -0.000   -0.000  0.000  0.000    0.001  0.002  0.000
 C         -0.000  0.002 -0.002    0.000  0.001 -0.000    0.003  0.003 -0.004
 C          0.028 -0.078 -0.011    0.006 -0.023 -0.004    0.001 -0.002 -0.000
 C         -0.010  0.016  0.016    0.028 -0.062 -0.055    0.005 -0.008 -0.008
 H          0.000  0.005 -0.000   -0.004 -0.026 -0.002    0.023  0.226  0.028
 H          0.016  0.003 -0.002   -0.130 -0.020  0.020    0.932  0.152 -0.146
 H          0.001 -0.002  0.001   -0.001  0.007 -0.006    0.003 -0.009  0.009
 H          0.001  0.000 -0.001    0.001  0.004 -0.003   -0.005 -0.017  0.018
 H         -0.001 -0.000 -0.000    0.002  0.001  0.003   -0.004 -0.001 -0.015
 H         -0.006 -0.022  0.025   -0.003 -0.010  0.008   -0.022 -0.047  0.059
 H          0.095  0.064  0.079    0.039  0.031  0.034   -0.001  0.000  0.001
 H         -0.407  0.853  0.067   -0.114  0.238  0.015   -0.007  0.017 -0.000
 H         -0.022 -0.067 -0.003    0.113  0.376  0.007    0.013  0.039 -0.000
 H          0.136 -0.116 -0.193   -0.439  0.375  0.641   -0.065  0.056  0.095
 TransDip   0.063 -0.078  0.073    0.088 -0.109 -0.064   -0.096  0.009  0.046

 Mode:                40                     41                     42
 Frequency:      3166.00                3235.19                3267.00
 Force Cnst:      6.2335                 6.7378                 7.0120
 Red. Mass:       1.0555                 1.0926                 1.1151
 IR Active:          YES                    YES                    YES
 IR Intens:        2.554                  6.597                  7.980
 Raman Active:       YES                    YES                    YES
               X      Y      Z        X      Y      Z        X      Y      Z
 C         -0.002 -0.001  0.001    0.009 -0.001  0.000   -0.001 -0.000  0.000
 C          0.002  0.005 -0.000   -0.000  0.000  0.001    0.001 -0.002  0.003
 C         -0.034 -0.047 -0.031    0.000  0.000  0.002   -0.006 -0.039  0.091
 C          0.000  0.001 -0.001    0.022  0.058 -0.061   -0.000 -0.001  0.001
 C         -0.000  0.000  0.000   -0.004  0.003  0.001   -0.000 -0.000  0.000
 C          0.001  0.001  0.000   -0.001  0.000  0.001    0.000  0.000 -0.000
 H          0.000  0.005 -0.002   -0.000 -0.012  0.000    0.002  0.004  0.002
 H          0.024  0.004 -0.005   -0.072 -0.008  0.009    0.013  0.001 -0.004
 H          0.003 -0.021  0.010   -0.000 -0.002 -0.001   -0.005  0.019 -0.019
 H          0.151  0.397 -0.409    0.001  0.005 -0.005    0.218  0.554 -0.546
 H          0.217  0.116  0.765   -0.006 -0.004 -0.020   -0.155 -0.098 -0.550
 H         -0.004 -0.010  0.011   -0.268 -0.655  0.696    0.005  0.011 -0.013
 H         -0.001 -0.000 -0.002    0.002  0.001 -0.000   -0.001 -0.001 -0.001
 H          0.001 -0.001 -0.000    0.019 -0.032 -0.004    0.000 -0.001 -0.000
 H         -0.003 -0.007 -0.001   -0.002 -0.003 -0.001    0.000 -0.001  0.000
 H         -0.002  0.001  0.001    0.006 -0.004 -0.010    0.001  0.000  0.000
 TransDip  -0.033 -0.039 -0.000    0.057  0.059  0.001   -0.032 -0.019  0.082

 STANDARD THERMODYNAMIC QUANTITIES AT   298.15 K  AND     1.00 ATM

   This Molecule has  1 Imaginary Frequencies
   Zero point vibrational energy:       88.666 kcal/mol

   Atom    1 Element C  Has Mass   12.00000
   Atom    2 Element C  Has Mass   12.00000
   Atom    3 Element C  Has Mass   12.00000
   Atom    4 Element C  Has Mass   12.00000
   Atom    5 Element C  Has Mass   12.00000
   Atom    6 Element C  Has Mass   12.00000
   Atom    7 Element H  Has Mass    1.00783
   Atom    8 Element H  Has Mass    1.00783
   Atom    9 Element H  Has Mass    1.00783
   Atom   10 Element H  Has Mass    1.00783
   Atom   11 Element H  Has Mass    1.00783
   Atom   12 Element H  Has Mass    1.00783
   Atom   13 Element H  Has Mass    1.00783
   Atom   14 Element H  Has Mass    1.00783
   Atom   15 Element H  Has Mass    1.00783
   Atom   16 Element H  Has Mass    1.00783
   Molecular Mass:    82.078300 amu
   Principal axes and moments of inertia in amu*Bohr^2:
                             1           2           3
    Eigenvalues --      340.25613   480.75820   604.47052
          X               0.69132     0.71469    -0.10630
          Y               0.07440     0.07593     0.99433
          Z               0.71871    -0.69531    -0.00069
   Rotational Symmetry Number is   1
   The Molecule is an Asymmetric Top
   Translational Enthalpy:        0.889 kcal/mol
   Rotational Enthalpy:           0.889 kcal/mol
   Vibrational Enthalpy:         90.451 kcal/mol
   gas constant (RT):             0.592 kcal/mol
   Translational Entropy:        39.129  cal/mol.K
   Rotational Entropy:           26.094  cal/mol.K
   Vibrational Entropy:           9.003  cal/mol.K

   Total Enthalpy:               92.821 kcal/mol
   Total Entropy:                74.226  cal/mol.K
Archival summary:
1\1\nid00485\FREQ\ProcedureUnspecified\BasisUnspecified\610\cgrambow\TueFeb1913:13:182019TueFeb1913:13:182019\0\\#,FREQ,ProcedureUnspecified,BasisUnspecified,\\0,1\C\H,1,1.09961\C,1,1.41856,2,111.355\H,3,1.08104,1,120.748,2,151.259,0\H,3,1.08432,1,121.421,2,-25.0153,0\C,1,1.56546,2,107.2,3,-135.529,0\H,6,1.09116,1,110.723,2,81.1527,0\H,6,1.0945,1,108.002,2,-36.2367,0\C,6,1.53713,1,106.507,2,-155.64,0\H,9,1.09108,6,114.405,1,-107.983,0\H,9,1.09907,6,108.734,1,133.375,0\C,9,1.48314,6,103.056,1,14.0598,0\H,12,1.08155,9,123.512,6,-157.691,0\C,12,1.41581,9,112.266,6,18.9742,0\H,14,1.0903,12,116.411,9,-164.561,0\H,14,1.0978,12,117.701,9,63.0452,0\\\@

 Total job time:  2522.99s(wall), 9567.43s(cpu) 
 Tue Feb 19 13:13:18 2019

        *************************************************************
        *                                                           *
        *  Thank you very much for using Q-Chem.  Have a nice day.  *
        *                                                           *
        *************************************************************


