
Running Job 1 of 2 prod_optfreq0251.in
qchem prod_optfreq0251.in_59946.0 /tmp/qchem59946/ 1
/global/common/cori/software/qchem/5.1/exe/qcprog.exe prod_optfreq0251.in_59946.0 /tmp/qchem59946/
Check license passed

                  Welcome to Q-Chem
     A Quantum Leap Into The Future Of Chemistry


 Q-Chem 5.1, Q-Chem, Inc., Pleasanton, CA (2018)

 Yihan Shao,  Zhengting Gan,  E. Epifanovsky,  A. T. B. Gilbert,  M. Wormit,  
 J. Kussmann,  A. W. Lange,  A. Behn,  Jia Deng,  Xintian Feng,  D. Ghosh,  
 M. Goldey,  P. R. Horn,  L. D. Jacobson,  I. Kaliman,  T. Kus,  A. Landau,  
 Jie Liu,  E. I. Proynov,  R. M. Richard,  R. P. Steele,  E. J. Sundstrom,  
 H. L. Woodcock III,  P. M. Zimmerman,  D. Zuev,  B. Albrecht,  E. Alguire,  
 S. A. Baeppler,  D. Barton,  Z. Benda,  Y. A. Bernard,  E. J. Berquist,  
 K. B. Bravaya,  H. Burton,  D. Casanova,  Chun-Min Chang,  Yunqing Chen,  
 A. Chien,  K. D. Closser,  M. P. Coons,  S. Coriani,  S. Dasgupta,  
 A. L. Dempwolff,  M. Diedenhofen,  Hainam Do,  R. G. Edgar,  Po-Tung Fang,  
 S. Faraji,  S. Fatehi,  Qingguo Feng,  K. D. Fenk,  J. Fosso-Tande,  
 Qinghui Ge,  A. Ghysels,  G. Gidofalvi,  J. Gomes,  J. Gonthier,  A. Gunina,  
 D. Hait,  M. W. D. Hanson-Heine,  P. H. P. Harbach,  A. W. Hauser,  
 J. E. Herr,  E. G. Hohenstein,  Z. C. Holden,  Kerwin Hui,  B. C. Huynh,  
 T.-C. Jagau,  Hyunjun Ji,  B. Kaduk,  K. Khistyaev,  Jaehoon Kim,  
 P. Klunzinger,  K. Koh,  D. Kosenkov,  L. Koulias,  T. Kowalczyk,  
 C. M. Krauter,  A. Kunitsa,  Ka Un Lao,  A. Laurent,  K. V. Lawler,  
 Joonho Lee,  D. Lefrancois,  S. Lehtola,  D. S. Levine,  Yi-Pei Li,  
 You-Sheng Lin,  Fenglai Liu,  E. Livshits,  A. Luenser,  P. Manohar,  
 E. Mansoor,  S. F. Manzer,  Shan-Ping Mao,  Yuezhi Mao,  N. Mardirossian,  
 A. V. Marenich,  T. Markovich,  L. A. Martinez-Martinez,  S. A. Maurer,  
 N. J. Mayhall,  S. C. McKenzie,  J.-M. Mewes,  A. F. Morrison,  
 J. W. Mullinax,  K. Nanda,  T. S. Nguyen-Beck,  R. Olivares-Amaya,  
 J. A. Parkhill,  T. M. Perrine,  F. Plasser,  P. Pokhilko,  S. Prager,  
 A. Prociuk,  E. Ramos,  D. R. Rehn,  F. Rob,  M. Schneider,  N. Sergueev,  
 S. M. Sharada,  S. Sharma,  D. W. Small,  T. Stauch,  T. Stein,  
 Yu-Chuan Su,  A. J. W. Thom,  A. Tkatchenko,  T. Tsuchimochi,  N. M. Tubman,  
 L. Vogt,  M. L. Vidal,  O. Vydrov,  M. A. Watson,  J. Wenzel,  
 M. de Wergifosse,  T. A. Wesolowski,  A. White,  J. Witte,  A. Yamada,  
 Jun Yang,  K. Yao,  S. Yeganeh,  S. R. Yost,  Zhi-Qiang You,  A. Zech,  
 Igor Ying Zhang,  Xing Zhang,  Yan Zhao,  Ying Zhu,  B. R. Brooks,  
 G. K. L. Chan,  C. J. Cramer,  M. S. Gordon,  W. J. Hehre,  A. Klamt,  
 M. W. Schmidt,  C. D. Sherrill,  D. G. Truhlar,  A. Aspuru-Guzik,  R. Baer,  
 A. T. Bell,  N. A. Besley,  Jeng-Da Chai,  R. A. DiStasio Jr.,  A. Dreuw,  
 B. D. Dunietz,  T. R. Furlani,  Chao-Ping Hsu,  Yousung Jung,  Jing Kong,  
 D. S. Lambrecht,  WanZhen Liang,  C. Ochsenfeld,  V. A. Rassolov,  
 L. V. Slipchenko,  J. E. Subotnik,  T. Van Voorhis,  J. M. Herbert,  
 A. I. Krylov,  P. M. W. Gill,  M. Head-Gordon

 Contributors to earlier versions of Q-Chem not listed above: 
 R. D. Adamson,  B. Austin,  J. Baker,  G. J. O. Beran,  K. Brandhorst,  
 S. T. Brown,  E. F. C. Byrd,  A. K. Chakraborty,  C.-L. Cheng,  
 Siu Hung Chien,  D. M. Chipman,  D. L. Crittenden,  H. Dachsel,  
 R. J. Doerksen,  A. D. Dutoi,  L. Fusti-Molnar,  W. A. Goddard III,  
 A. Golubeva-Zadorozhnaya,  S. R. Gwaltney,  G. Hawkins,  A. Heyden,  
 S. Hirata,  G. Kedziora,  F. J. Keil,  C. Kelley,  Jihan Kim,  R. A. King,  
 R. Z. Khaliullin,  P. P. Korambath,  W. Kurlancheek,  A. M. Lee,  M. S. Lee,  
 S. V. Levchenko,  Ching Yeh Lin,  D. Liotard,  R. C. Lochan,  I. Lotan,  
 P. E. Maslen,  N. Nair,  D. P. O'Neill,  D. Neuhauser,  E. Neuscamman,  
 C. M. Oana,  R. Olson,  B. Peters,  R. Peverati,  P. A. Pieniazek,  
 Y. M. Rhee,  J. Ritchie,  M. A. Rohrdanz,  E. Rosta,  N. J. Russ,  
 H. F. Schaefer III,  N. E. Schultz,  N. Shenvi,  A. C. Simmonett,  A. Sodt,  
 D. Stuck,  K. S. Thanthiriwatte,  V. Vanovschi,  Tao Wang,  A. Warshel,  
 C. F. Williams,  Q. Wu,  X. Xu,  W. Zhang

 Please cite Q-Chem as follows:
 Y. Shao et al., Mol. Phys. 113, 184-215 (2015)
 DOI: 10.1080/00268976.2014.952696

 Q-Chem 5.1.0 for Intel X86 EM64T Linux

 Parts of Q-Chem use Armadillo 8.300.2 (Tropical Shenanigans).
 http://arma.sourceforge.net/

 Q-Chem begins on Tue Feb 12 23:20:16 2019  

Host: cori07
0

     Scratch files written to /tmp/qchem59946//
 Jun2518 |scratch|qcdevops|jenkins|workspace|build_RNUM -1
Processing $rem in /global/common/cori/software/qchem/5.1/config/preferences.
 MEM_TOTAL  96000 

Checking the input file for inconsistencies... 	...done.

--------------------------------------------------------------
User input:
--------------------------------------------------------------
$molecule
0 1
C   1.9169986459   1.1709873045  -0.0000630925
O   0.9813057205   0.8324674900   1.0123078291
C  -1.0046645750  -1.4913352102  -0.1300193037
C  -1.8017436098  -0.3034634127  -0.5957076295
O  -1.5311377014   0.8676196224  -0.3630414281
H   2.9143475656   0.9109111704   0.3783631923
H   1.7561080145   0.6143746778  -0.9436178881
H   1.9150748729   2.2505162779  -0.2400364813
H  -0.1164199023  -1.1740240747   0.4284831260
H  -1.6462630257  -2.1302479185   0.4983739094
H  -0.7190929720  -2.1035923584  -1.0002851545
H  -2.7098239213  -0.5450204026  -1.1974575777
H   0.0901448880   1.0351378341   0.6504074986
$end

$rem
JOBTYPE                   OPT
METHOD                    wB97X-D3
BASIS                     def2-TZVP
UNRESTRICTED              TRUE
SCF_ALGORITHM             DIIS
MAX_SCF_CYCLES            100
SCF_CONVERGENCE           8
SYM_IGNORE                TRUE
SYMMETRY                  FALSE
GEOM_OPT_MAX_CYCLES       100
GEOM_OPT_TOL_GRADIENT     100
GEOM_OPT_TOL_DISPLACEMENT 400
GEOM_OPT_TOL_ENERGY       33
WAVEFUNCTION_ANALYSIS     FALSE
$end

--------------------------------------------------------------
 Adding empirical dispersion correction 
 ----------------------------------------------------------------
 Doing -D3(0) with
 s6  =   1.00000
 s8  =   1.00000
 rs6 =   1.28100
 rs8 =   1.09400
 -D3 energy without 3body term =     -0.0027821205 hartrees
 ----------------------------------------------------------------
             Standard Nuclear Orientation (Angstroms)
    I     Atom           X                Y                Z
 ----------------------------------------------------------------
    1      C       1.9169986459     1.1709873045    -0.0000630925
    2      O       0.9813057205     0.8324674900     1.0123078291
    3      C      -1.0046645750    -1.4913352102    -0.1300193037
    4      C      -1.8017436098    -0.3034634127    -0.5957076295
    5      O      -1.5311377014     0.8676196224    -0.3630414281
    6      H       2.9143475656     0.9109111704     0.3783631923
    7      H       1.7561080145     0.6143746778    -0.9436178881
    8      H       1.9150748729     2.2505162779    -0.2400364813
    9      H      -0.1164199023    -1.1740240747     0.4284831260
   10      H      -1.6462630257    -2.1302479185     0.4983739094
   11      H      -0.7190929720    -2.1035923584    -1.0002851545
   12      H      -2.7098239213    -0.5450204026    -1.1974575777
   13      H       0.0901448880     1.0351378341     0.6504074986
 ----------------------------------------------------------------
 Nuclear Repulsion Energy =   175.3839226339 hartrees
 There are       21 alpha and       21 beta electrons
 Requested basis set is def2-TZVP
 There are 87 shells and 203 basis functions

 Total QAlloc Memory Limit  96000 MB
 Mega-Array Size       188 MB
 MEM_STATIC part       192 MB
 A cutoff of  1.0D-11 yielded   3450 shell pairs
 There are     19144 function pairs (     24289 Cartesian)
 
 -------------------------------------------------------
 OpenMP Integral Computing Module                       
 Release: version 1.0, May 2013, Q-Chem Inc. Pittsburgh 
 -------------------------------------------------------
 Integral Job Info:
 Integral job number is                      11
 Integral operator is                         1
 short-range coefficients              19572800
 long-range coefficients              100000000
 Omega coefficients                         250
 if combine SR and LR in K                    1
 Integral screening is                        0
 Integral computing path is                   2
 max size of driver memory is            800000
 size of driver memory is                776718
 size of scratch memory is              4473992
 max col of scratch BK array              10000
 max len of scratch array in speh3          662
 max len of scratch index in speh4           32
 max int batch size is                      520
 min int batch size is                       52
 fixed nKL is                                52
 max L of basis functions is                  3
 order of int derivative is                   0
 number of shells is                         87
 number of basis is                         228
 number of cartesian basis is               228
 number of contracted shell pairs          3450
 number of primitive shell pairs           7653
 maxK2 (contraction) of shell pair           36
 max number of K2 of shell pair               1
 max number of CS2 of shell pair            575
 max number of PS2 of shell pair            954
 mem total for path MDJ                  564328
 -------------------------------------------------------
 Smallest overlap matrix eigenvalue = 5.26E-04

 Scale SEOQF with 1.000000e-01/1.000000e-01/1.000000e+00

 Standard Electronic Orientation quadrupole field applied
 Nucleus-field energy     =    -0.0000000097 hartrees
 Guess from superposition of atomic densities
 Warning:  Energy on first SCF cycle will be non-variational
 SAD guess density has 42.000000 electrons

 -----------------------------------------------------------------------
  General SCF calculation program by
  Eric Jon Sundstrom, Paul Horn, Yuezhi Mao, Dmitri Zuev, Alec White,
  David Stuck, Shaama M.S., Shane Yost, Joonho Lee, David Small,
  Daniel Levine, Susi Lehtola, Hugh Burton, Evgeny Epifanovsky
 -----------------------------------------------------------------------
 Exchange:     0.1957 Hartree-Fock + 1.0000 wB97X-D3 + LR-HF
 Correlation:  1.0000 wB97X-D3
 Using SG-2 standard quadrature grid
 Dispersion:   Grimme D3
 using 16 threads for integral computing
 -------------------------------------------------------
 OpenMP Integral computing Module                
 Release: version 1.0, May 2013, Q-Chem Inc. Pittsburgh 
 -------------------------------------------------------
 using 16 threads for integral computing
 -------------------------------------------------------
 OpenMP Integral computing Module                
 Release: version 1.0, May 2013, Q-Chem Inc. Pittsburgh 
 -------------------------------------------------------
 -------------------------------------------------------
 OpenMP BLAS3 based DFT computing Module                
 Release: version 1.0, May 2013, Q-Chem Inc. Pittsburgh 
 -------------------------------------------------------
 A unrestricted SCF calculation will be
 performed using DIIS
 SCF converges when DIIS error is below 1.0e-08
 ---------------------------------------
  Cycle       Energy         DIIS error
 ---------------------------------------
    1    -270.1563406035      1.79e-02  
    2    -269.4700341519      2.70e-03  
    3    -269.4259119145      3.46e-03  
    4    -269.5889877493      3.58e-04  
    5    -269.5906821545      1.84e-04  
    6    -269.5911571164      4.47e-05  
    7    -269.5911932121      1.32e-05  
    8    -269.5911975047      3.04e-06  
    9    -269.5911979569      9.06e-07  
   10    -269.5911979828      2.45e-07  
   11    -269.5911979845      5.43e-08  
   12    -269.5911979846      1.05e-08  
   13    -269.5911979846      2.03e-09  Convergence criterion met
 ---------------------------------------
 SCF time:   CPU 346.86s  wall 28.00s 
<S^2> =         -0.000000000
 SCF   energy in the final basis set =     -269.5911979846
 Total energy in the final basis set =     -269.5911979846
 No wavefunction analysis requested
 Calculating analytic gradient of the SCF energy
 Gradient of SCF Energy
            1           2           3           4           5           6
    1  -0.0027721   0.0072487   0.0002310  -0.0036543   0.0060183   0.0043435
    2  -0.0001815  -0.0064776  -0.0011290  -0.0186883   0.0296182  -0.0011261
    3  -0.0013942   0.0136802   0.0002311  -0.0037540   0.0054246   0.0019199
            7           8           9          10          11          12
    1   0.0007081   0.0012960   0.0037416  -0.0027381   0.0015480  -0.0043181
    2  -0.0020865   0.0059470   0.0021620  -0.0040054  -0.0038664  -0.0029202
    3  -0.0059509  -0.0024681   0.0021588   0.0029346  -0.0037181  -0.0028969
           13
    1  -0.0116525
    2   0.0027537
    3  -0.0061669
 Max gradient component =       2.962E-02
 RMS gradient           =       7.202E-03
 Gradient time:  CPU 63.33 s  wall 4.77 s
 Geometry Optimization Parameters
   NAtoms,    NIC,     NZ,  NCons,   NDum,   NFix, NCnnct, MaxDiis
       13      69       0       0       0       0       0       0


** GEOMETRY OPTIMIZATION IN DELOCALIZED INTERNAL COORDINATES **
   Searching for a Minimum

   Optimization Cycle:   1

                       Coordinates (Angstroms)
     ATOM                X               Y               Z
      1  C         1.9169986459    1.1709873045   -0.0000630925
      2  O         0.9813057205    0.8324674900    1.0123078291
      3  C        -1.0046645750   -1.4913352102   -0.1300193037
      4  C        -1.8017436098   -0.3034634127   -0.5957076295
      5  O        -1.5311377014    0.8676196224   -0.3630414281
      6  H         2.9143475656    0.9109111704    0.3783631923
      7  H         1.7561080145    0.6143746778   -0.9436178881
      8  H         1.9150748729    2.2505162779   -0.2400364813
      9  H        -0.1164199023   -1.1740240747    0.4284831260
     10  H        -1.6462630257   -2.1302479185    0.4983739094
     11  H        -0.7190929720   -2.1035923584   -1.0002851545
     12  H        -2.7098239213   -0.5450204026   -1.1974575777
     13  H         0.0901448880    1.0351378341    0.6504074986
   Point Group: c1    Number of degrees of freedom:    33


   Energy is   -269.591197985


 Attempting to Generate Delocalized Internal Coordinates

 33 Hessian modes will be used to form the next step
  Hessian Eigenvalues:
     0.002000    0.008596    0.010549    0.013064    0.016589    0.038893
     0.049367    0.073013    0.077262    0.097076    0.103700    0.160000
     0.160000    0.160000    0.160000    0.160000    0.160000    0.160000
     0.160000    0.160000    0.160000    0.220000    0.319193    0.319911
     0.328931    0.330400    0.334454    0.334933    0.339070    0.341092
     0.425341    0.508138    0.935232

 Minimum Search - Taking Simple RFO Step
 Searching for Lamda that Minimizes Along All modes
 Value Taken    Lamda =  -0.00274611
 Step Taken.  Stepsize is  0.115076

                             Maximum     Tolerance    Cnvgd?
         Gradient           0.016914      0.000100      NO
         Displacement       0.050583      0.000400      NO
         Energy change     *********      0.000000      NO


 New Cartesian Coordinates Obtained by Inverse Iteration

 Displacement from previous Coordinates is:  0.522570
 Adding empirical dispersion correction 
 ----------------------------------------------------------------
 Doing -D3(0) with
 s6  =   1.00000
 s8  =   1.00000
 rs6 =   1.28100
 rs8 =   1.09400
 -D3 energy without 3body term =     -0.0027021548 hartrees
 ----------------------------------------------------------------
             Standard Nuclear Orientation (Angstroms)
    I     Atom           X                Y                Z
 ----------------------------------------------------------------
    1      C       1.9621943600     1.2276865164     0.0028101614
    2      O       1.0260324615     0.8224559857     0.9745959578
    3      C      -1.0612599755    -1.5321158579    -0.1198107143
    4      C      -1.8043432474    -0.3305405356    -0.6003928953
    5      O      -1.4920550406     0.8168639348    -0.3894461928
    6      H       2.9580069063     0.9897454055     0.3780264532
    7      H       1.8197040877     0.7026559557    -0.9505414403
    8      H       1.9134811206     2.3055344514    -0.1886770076
    9      H      -0.1672396053    -1.2546452092     0.4363685929
   10      H      -1.7307941209    -2.1264538413     0.5078698363
   11      H      -0.8043835843    -2.1562958145    -0.9796284587
   12      H      -2.7144880175    -0.5314900187    -1.1966470299
   13      H       0.1399786553     1.0009300278     0.6231797374
 ----------------------------------------------------------------
 Nuclear Repulsion Energy =   175.4957685638 hartrees
 There are       21 alpha and       21 beta electrons
 Applying Cartesian multipole field
    Component          Value
    ---------          -----
     (2,0,0)        1.00000E-11
     (0,2,0)        2.00000E-11
     (0,0,2)       -3.00000E-10
 Nucleus-field energy     =    -0.0000000090 hartrees
 Requested basis set is def2-TZVP
 There are 87 shells and 203 basis functions
 A cutoff of  1.0D-11 yielded   3439 shell pairs
 There are     19037 function pairs (     24130 Cartesian)
 Smallest overlap matrix eigenvalue = 4.84E-04
 Guess MOs from SCF MO coefficient file
 Reading MOs from coefficient file
 Reading MOs from coefficient file

 -----------------------------------------------------------------------
  General SCF calculation program by
  Eric Jon Sundstrom, Paul Horn, Yuezhi Mao, Dmitri Zuev, Alec White,
  David Stuck, Shaama M.S., Shane Yost, Joonho Lee, David Small,
  Daniel Levine, Susi Lehtola, Hugh Burton, Evgeny Epifanovsky
 -----------------------------------------------------------------------
 Exchange:     0.1957 Hartree-Fock + 1.0000 wB97X-D3 + LR-HF
 Correlation:  1.0000 wB97X-D3
 Using SG-2 standard quadrature grid
 Dispersion:   Grimme D3
 using 16 threads for integral computing
 -------------------------------------------------------
 OpenMP Integral computing Module                
 Release: version 1.0, May 2013, Q-Chem Inc. Pittsburgh 
 -------------------------------------------------------
 using 16 threads for integral computing
 -------------------------------------------------------
 OpenMP Integral computing Module                
 Release: version 1.0, May 2013, Q-Chem Inc. Pittsburgh 
 -------------------------------------------------------
 -------------------------------------------------------
 OpenMP BLAS3 based DFT computing Module                
 Release: version 1.0, May 2013, Q-Chem Inc. Pittsburgh 
 -------------------------------------------------------
 A unrestricted SCF calculation will be
 performed using DIIS
 SCF converges when DIIS error is below 1.0e-08
 ---------------------------------------
  Cycle       Energy         DIIS error
 ---------------------------------------
    1    -269.6293554354      6.70e-04  
    2    -269.5923359911      9.55e-05  
    3    -269.5926005756      5.47e-05  
    4    -269.5926515099      1.90e-05  
    5    -269.5926592237      9.78e-06  
    6    -269.5926611482      2.80e-06  
    7    -269.5926613629      1.41e-06  
    8    -269.5926614203      4.82e-07  
    9    -269.5926614375      1.43e-07  
   10    -269.5926614403      5.69e-08  
   11    -269.5926614407      2.20e-08  
   12    -269.5926614408      6.76e-09  Convergence criterion met
 ---------------------------------------
 SCF time:   CPU 328.06s  wall 25.00s 
<S^2> =         -0.000000000
 SCF   energy in the final basis set =     -269.5926614408
 Total energy in the final basis set =     -269.5926614408
 No wavefunction analysis requested
 Calculating analytic gradient of the SCF energy
 Gradient of SCF Energy
            1           2           3           4           5           6
    1   0.0010492   0.0013999   0.0003546   0.0002356  -0.0000318   0.0001639
    2   0.0002708  -0.0008362   0.0000483  -0.0042962   0.0035254  -0.0000028
    3  -0.0001826   0.0009062  -0.0000037   0.0001822  -0.0001965  -0.0000585
            7           8           9          10          11          12
    1  -0.0004911  -0.0003661  -0.0000707  -0.0001725  -0.0002985   0.0006450
    2  -0.0000818  -0.0001658   0.0000125   0.0003097   0.0001348   0.0008182
    3   0.0000433   0.0000335   0.0001253  -0.0001432  -0.0000856   0.0003744
           13
    1  -0.0024174
    2   0.0002632
    3  -0.0009949
 Max gradient component =       4.296E-03
 RMS gradient           =       1.070E-03
 Gradient time:  CPU 61.14 s  wall 4.84 s
 Geometry Optimization Parameters
   NAtoms,    NIC,     NZ,  NCons,   NDum,   NFix, NCnnct, MaxDiis
       13      69       0       0       0       0       0       0

 Cartesian Hessian Update
 Hessian Updated using BFGS Update


** GEOMETRY OPTIMIZATION IN DELOCALIZED INTERNAL COORDINATES **
   Searching for a Minimum

   Optimization Cycle:   2

                       Coordinates (Angstroms)
     ATOM                X               Y               Z
      1  C         1.9621943600    1.2276865164    0.0028101614
      2  O         1.0260324615    0.8224559857    0.9745959578
      3  C        -1.0612599755   -1.5321158579   -0.1198107143
      4  C        -1.8043432474   -0.3305405356   -0.6003928953
      5  O        -1.4920550406    0.8168639348   -0.3894461928
      6  H         2.9580069063    0.9897454055    0.3780264532
      7  H         1.8197040877    0.7026559557   -0.9505414403
      8  H         1.9134811206    2.3055344514   -0.1886770076
      9  H        -0.1672396053   -1.2546452092    0.4363685929
     10  H        -1.7307941209   -2.1264538413    0.5078698363
     11  H        -0.8043835843   -2.1562958145   -0.9796284587
     12  H        -2.7144880175   -0.5314900187   -1.1966470299
     13  H         0.1399786553    1.0009300278    0.6231797374
   Point Group: c1    Number of degrees of freedom:    33


   Energy is   -269.592661441

 Hessian Updated using BFGS Update

 26 Hessian modes will be used to form the next step
  Hessian Eigenvalues:
     0.002023    0.008596    0.010537    0.013065    0.016589    0.038902
     0.048824    0.073035    0.077297    0.097863    0.103728    0.148746
     0.160000    0.166684    0.220063    0.319309    0.323591    0.329346
     0.332130    0.334709    0.337967    0.340165    0.346921    0.424898
     0.493350    0.898893

 Minimum Search - Taking Simple RFO Step
 Searching for Lamda that Minimizes Along All modes
 Value Taken    Lamda =  -0.00010638
 Step Taken.  Stepsize is  0.033281

                             Maximum     Tolerance    Cnvgd?
         Gradient           0.002552      0.000100      NO
         Displacement       0.015040      0.000400      NO
         Energy change     -0.001463      0.000000      NO


 New Cartesian Coordinates Obtained by Inverse Iteration

 Displacement from previous Coordinates is:  0.130846
 Adding empirical dispersion correction 
 ----------------------------------------------------------------
 Doing -D3(0) with
 s6  =   1.00000
 s8  =   1.00000
 rs6 =   1.28100
 rs8 =   1.09400
 -D3 energy without 3body term =     -0.0026810514 hartrees
 ----------------------------------------------------------------
             Standard Nuclear Orientation (Angstroms)
    I     Atom           X                Y                Z
 ----------------------------------------------------------------
    1      C       1.9755634960     1.2400646574     0.0049153219
    2      O       1.0348264854     0.8352180415     0.9712353071
    3      C      -1.0755914388    -1.5422220632    -0.1238022762
    4      C      -1.8163250679    -0.3365399392    -0.5991601482
    5      O      -1.4939531547     0.8058132833    -0.3882816897
    6      H       2.9675554930     1.0090830550     0.3930039219
    7      H       1.8497074104     0.7088285549    -0.9468330440
    8      H       1.9267605886     2.3166680865    -0.1927899609
    9      H      -0.1767977205    -1.2677135188     0.4255744407
   10      H      -1.7407389617    -2.1360747059     0.5088876902
   11      H      -0.8242594744    -2.1672703444    -0.9843746420
   12      H      -2.7320687094    -0.5356924981    -1.1896697871
   13      H       0.1501550540     1.0041683910     0.6190018663
 ----------------------------------------------------------------
 Nuclear Repulsion Energy =   175.1448934062 hartrees
 There are       21 alpha and       21 beta electrons
 Applying Cartesian multipole field
    Component          Value
    ---------          -----
     (2,0,0)        1.00000E-11
     (0,2,0)        2.00000E-11
     (0,0,2)       -3.00000E-10
 Nucleus-field energy     =    -0.0000000088 hartrees
 Requested basis set is def2-TZVP
 There are 87 shells and 203 basis functions
 A cutoff of  1.0D-11 yielded   3430 shell pairs
 There are     18970 function pairs (     24033 Cartesian)
 Smallest overlap matrix eigenvalue = 4.86E-04
 Guess MOs from SCF MO coefficient file
 Reading MOs from coefficient file
 Reading MOs from coefficient file

 -----------------------------------------------------------------------
  General SCF calculation program by
  Eric Jon Sundstrom, Paul Horn, Yuezhi Mao, Dmitri Zuev, Alec White,
  David Stuck, Shaama M.S., Shane Yost, Joonho Lee, David Small,
  Daniel Levine, Susi Lehtola, Hugh Burton, Evgeny Epifanovsky
 -----------------------------------------------------------------------
 Exchange:     0.1957 Hartree-Fock + 1.0000 wB97X-D3 + LR-HF
 Correlation:  1.0000 wB97X-D3
 Using SG-2 standard quadrature grid
 Dispersion:   Grimme D3
 using 16 threads for integral computing
 -------------------------------------------------------
 OpenMP Integral computing Module                
 Release: version 1.0, May 2013, Q-Chem Inc. Pittsburgh 
 -------------------------------------------------------
 using 16 threads for integral computing
 -------------------------------------------------------
 OpenMP Integral computing Module                
 Release: version 1.0, May 2013, Q-Chem Inc. Pittsburgh 
 -------------------------------------------------------
 -------------------------------------------------------
 OpenMP BLAS3 based DFT computing Module                
 Release: version 1.0, May 2013, Q-Chem Inc. Pittsburgh 
 -------------------------------------------------------
 A unrestricted SCF calculation will be
 performed using DIIS
 SCF converges when DIIS error is below 1.0e-08
 ---------------------------------------
  Cycle       Energy         DIIS error
 ---------------------------------------
    1    -269.5956584588      1.21e-04  
    2    -269.5927175609      2.20e-05  
    3    -269.5927245939      2.15e-05  
    4    -269.5927310165      5.21e-06  
    5    -269.5927316253      1.62e-06  
    6    -269.5927317496      5.29e-07  
    7    -269.5927317707      2.30e-07  
    8    -269.5927317770      1.30e-07  
    9    -269.5927317782      4.95e-08  
   10    -269.5927317784      1.32e-08  
   11    -269.5927317784      4.17e-09  Convergence criterion met
 ---------------------------------------
 SCF time:   CPU 299.60s  wall 24.00s 
<S^2> =         -0.000000000
 SCF   energy in the final basis set =     -269.5927317784
 Total energy in the final basis set =     -269.5927317784
 No wavefunction analysis requested
 Calculating analytic gradient of the SCF energy
 Gradient of SCF Energy
            1           2           3           4           5           6
    1   0.0003898  -0.0000963   0.0001243   0.0007215  -0.0002061  -0.0003087
    2   0.0001775  -0.0000766   0.0002589  -0.0007225   0.0004134  -0.0000021
    3  -0.0004393  -0.0001146  -0.0000172   0.0004181  -0.0002811  -0.0000454
            7           8           9          10          11          12
    1   0.0000285   0.0000122  -0.0002054  -0.0000335  -0.0001863   0.0002373
    2   0.0000533  -0.0002522  -0.0001183   0.0001653   0.0001564   0.0001835
    3   0.0001685   0.0000573  -0.0000932  -0.0000986   0.0001252   0.0000980
           13
    1  -0.0004774
    2  -0.0002365
    3   0.0002224
 Max gradient component =       7.225E-04
 RMS gradient           =       2.682E-04
 Gradient time:  CPU 59.58 s  wall 4.98 s
 Geometry Optimization Parameters
   NAtoms,    NIC,     NZ,  NCons,   NDum,   NFix, NCnnct, MaxDiis
       13      69       0       0       0       0       0       0

 Cartesian Hessian Update
 Hessian Updated using BFGS Update


** GEOMETRY OPTIMIZATION IN DELOCALIZED INTERNAL COORDINATES **
   Searching for a Minimum

   Optimization Cycle:   3

                       Coordinates (Angstroms)
     ATOM                X               Y               Z
      1  C         1.9755634960    1.2400646574    0.0049153219
      2  O         1.0348264854    0.8352180415    0.9712353071
      3  C        -1.0755914388   -1.5422220632   -0.1238022762
      4  C        -1.8163250679   -0.3365399392   -0.5991601482
      5  O        -1.4939531547    0.8058132833   -0.3882816897
      6  H         2.9675554930    1.0090830550    0.3930039219
      7  H         1.8497074104    0.7088285549   -0.9468330440
      8  H         1.9267605886    2.3166680865   -0.1927899609
      9  H        -0.1767977205   -1.2677135188    0.4255744407
     10  H        -1.7407389617   -2.1360747059    0.5088876902
     11  H        -0.8242594744   -2.1672703444   -0.9843746420
     12  H        -2.7320687094   -0.5356924981   -1.1896697871
     13  H         0.1501550540    1.0041683910    0.6190018663
   Point Group: c1    Number of degrees of freedom:    33


   Energy is   -269.592731778

 Hessian Updated using BFGS Update

 26 Hessian modes will be used to form the next step
  Hessian Eigenvalues:
     0.002012    0.008566    0.010037    0.013049    0.016586    0.037987
     0.040160    0.072909    0.076355    0.100987    0.103734    0.113312
     0.161296    0.174984    0.217416    0.319689    0.322303    0.329399
     0.331625    0.334856    0.337462    0.340215    0.345041    0.424604
     0.522331    0.941516

 Minimum Search - Taking Simple RFO Step
 Searching for Lamda that Minimizes Along All modes
 Value Taken    Lamda =  -0.00003931
 Step Taken.  Stepsize is  0.039230

                             Maximum     Tolerance    Cnvgd?
         Gradient           0.000804      0.000100      NO
         Displacement       0.025905      0.000400      NO
         Energy change     -0.000070      0.000000      NO


 New Cartesian Coordinates Obtained by Inverse Iteration

 Displacement from previous Coordinates is:  0.127815
 Adding empirical dispersion correction 
 ----------------------------------------------------------------
 Doing -D3(0) with
 s6  =   1.00000
 s8  =   1.00000
 rs6 =   1.28100
 rs8 =   1.09400
 -D3 energy without 3body term =     -0.0026607575 hartrees
 ----------------------------------------------------------------
             Standard Nuclear Orientation (Angstroms)
    I     Atom           X                Y                Z
 ----------------------------------------------------------------
    1      C       1.9899732894     1.2521051437     0.0084347980
    2      O       1.0460333659     0.8461303751     0.9699801500
    3      C      -1.0901768620    -1.5532901415    -0.1274204256
    4      C      -1.8280211115    -0.3428397943    -0.5988118703
    5      O      -1.4945709060     0.7959302399    -0.3894732509
    6      H       2.9816257212     1.0309096758     0.4043056404
    7      H       1.8750134941     0.7146589753    -0.9413954304
    8      H       1.9351600060     2.3275584825    -0.1959382660
    9      H      -0.1876216627    -1.2808881576     0.4175597725
   10      H      -1.7526967898    -2.1461795305     0.5091634173
   11      H      -0.8428776622    -2.1794437680    -0.9887374325
   12      H      -2.7492433303    -0.5377172209    -1.1836486117
   13      H       0.1622364477     1.0073967206     0.6136885093
 ----------------------------------------------------------------
 Nuclear Repulsion Energy =   174.7111783455 hartrees
 There are       21 alpha and       21 beta electrons
 Applying Cartesian multipole field
    Component          Value
    ---------          -----
     (2,0,0)        1.00000E-11
     (0,2,0)        2.00000E-11
     (0,0,2)       -3.00000E-10
 Nucleus-field energy     =    -0.0000000087 hartrees
 Requested basis set is def2-TZVP
 There are 87 shells and 203 basis functions
 A cutoff of  1.0D-11 yielded   3427 shell pairs
 There are     18947 function pairs (     24010 Cartesian)
 Smallest overlap matrix eigenvalue = 4.90E-04
 Guess MOs from SCF MO coefficient file
 Reading MOs from coefficient file
 Reading MOs from coefficient file

 -----------------------------------------------------------------------
  General SCF calculation program by
  Eric Jon Sundstrom, Paul Horn, Yuezhi Mao, Dmitri Zuev, Alec White,
  David Stuck, Shaama M.S., Shane Yost, Joonho Lee, David Small,
  Daniel Levine, Susi Lehtola, Hugh Burton, Evgeny Epifanovsky
 -----------------------------------------------------------------------
 Exchange:     0.1957 Hartree-Fock + 1.0000 wB97X-D3 + LR-HF
 Correlation:  1.0000 wB97X-D3
 Using SG-2 standard quadrature grid
 Dispersion:   Grimme D3
 using 16 threads for integral computing
 -------------------------------------------------------
 OpenMP Integral computing Module                
 Release: version 1.0, May 2013, Q-Chem Inc. Pittsburgh 
 -------------------------------------------------------
 using 16 threads for integral computing
 -------------------------------------------------------
 OpenMP Integral computing Module                
 Release: version 1.0, May 2013, Q-Chem Inc. Pittsburgh 
 -------------------------------------------------------
 -------------------------------------------------------
 OpenMP BLAS3 based DFT computing Module                
 Release: version 1.0, May 2013, Q-Chem Inc. Pittsburgh 
 -------------------------------------------------------
 A unrestricted SCF calculation will be
 performed using DIIS
 SCF converges when DIIS error is below 1.0e-08
 ---------------------------------------
  Cycle       Energy         DIIS error
 ---------------------------------------
    1    -269.5924528572      1.12e-04  
    2    -269.5927435599      1.65e-05  
    3    -269.5927499525      1.53e-05  
    4    -269.5927532883      4.43e-06  
    5    -269.5927538174      1.16e-06  
    6    -269.5927538939      4.31e-07  
    7    -269.5927539094      1.80e-07  
    8    -269.5927539139      6.63e-08  
    9    -269.5927539144      3.59e-08  
   10    -269.5927539145      1.37e-08  
   11    -269.5927539145      3.58e-09  Convergence criterion met
 ---------------------------------------
 SCF time:   CPU 296.29s  wall 21.00s 
<S^2> =         -0.000000000
 SCF   energy in the final basis set =     -269.5927539145
 Total energy in the final basis set =     -269.5927539145
 No wavefunction analysis requested
 Calculating analytic gradient of the SCF energy
 Gradient of SCF Energy
            1           2           3           4           5           6
    1  -0.0000357  -0.0000573  -0.0000433   0.0004110  -0.0000635  -0.0000133
    2  -0.0000770   0.0003251   0.0000771   0.0007692  -0.0004261  -0.0000289
    3   0.0000230  -0.0005846  -0.0000200   0.0003152  -0.0001720  -0.0000250
            7           8           9          10          11          12
    1   0.0000280   0.0000258  -0.0000532  -0.0000088  -0.0000260  -0.0000796
    2  -0.0000012  -0.0000675  -0.0001160  -0.0000015  -0.0000386  -0.0001786
    3   0.0000780   0.0000241  -0.0000378   0.0000240   0.0000546  -0.0001509
           13
    1  -0.0000842
    2  -0.0002360
    3   0.0004714
 Max gradient component =       7.692E-04
 RMS gradient           =       2.222E-04
 Gradient time:  CPU 59.51 s  wall 4.67 s
 Geometry Optimization Parameters
   NAtoms,    NIC,     NZ,  NCons,   NDum,   NFix, NCnnct, MaxDiis
       13      69       0       0       0       0       0       0

 Cartesian Hessian Update
 Hessian Updated using BFGS Update


** GEOMETRY OPTIMIZATION IN DELOCALIZED INTERNAL COORDINATES **
   Searching for a Minimum

   Optimization Cycle:   4

                       Coordinates (Angstroms)
     ATOM                X               Y               Z
      1  C         1.9899732894    1.2521051437    0.0084347980
      2  O         1.0460333659    0.8461303751    0.9699801500
      3  C        -1.0901768620   -1.5532901415   -0.1274204256
      4  C        -1.8280211115   -0.3428397943   -0.5988118703
      5  O        -1.4945709060    0.7959302399   -0.3894732509
      6  H         2.9816257212    1.0309096758    0.4043056404
      7  H         1.8750134941    0.7146589753   -0.9413954304
      8  H         1.9351600060    2.3275584825   -0.1959382660
      9  H        -0.1876216627   -1.2808881576    0.4175597725
     10  H        -1.7526967898   -2.1461795305    0.5091634173
     11  H        -0.8428776622   -2.1794437680   -0.9887374325
     12  H        -2.7492433303   -0.5377172209   -1.1836486117
     13  H         0.1622364477    1.0073967206    0.6136885093
   Point Group: c1    Number of degrees of freedom:    33


   Energy is   -269.592753914

 Hessian Updated using BFGS Update

 27 Hessian modes will be used to form the next step
  Hessian Eigenvalues:
     0.001921    0.007895    0.009060    0.013005    0.016621    0.035059
     0.040670    0.072916    0.076051    0.101009    0.103696    0.119623
     0.160684    0.164904    0.175958    0.216766    0.320217    0.326795
     0.329337    0.331488    0.334851    0.338563    0.340727    0.346336
     0.426844    0.520918    0.943102

 Minimum Search - Taking Simple RFO Step
 Searching for Lamda that Minimizes Along All modes
 Value Taken    Lamda =  -0.00000772
 Step Taken.  Stepsize is  0.035354

                             Maximum     Tolerance    Cnvgd?
         Gradient           0.000345      0.000100      NO
         Displacement       0.031073      0.000400      NO
         Energy change     -0.000022      0.000000      NO


 New Cartesian Coordinates Obtained by Inverse Iteration

 Displacement from previous Coordinates is:  0.052197
 Adding empirical dispersion correction 
 ----------------------------------------------------------------
 Doing -D3(0) with
 s6  =   1.00000
 s8  =   1.00000
 rs6 =   1.28100
 rs8 =   1.09400
 -D3 energy without 3body term =     -0.0026582041 hartrees
 ----------------------------------------------------------------
             Standard Nuclear Orientation (Angstroms)
    I     Atom           X                Y                Z
 ----------------------------------------------------------------
    1      C       1.9923996700     1.2508043183     0.0102937728
    2      O       1.0452030367     0.8526228323     0.9719031509
    3      C      -1.0897989544    -1.5529985276    -0.1308297490
    4      C      -1.8337412075    -0.3442985938    -0.5975094809
    5      O      -1.5002189529     0.7944953138    -0.3879347393
    6      H       2.9827389066     1.0337652280     0.4118829679
    7      H       1.8814858184     0.7051850320    -0.9354983728
    8      H       1.9379848804     2.3245438433    -0.2037649248
    9      H      -0.1865510568    -1.2764502793     0.4112986834
   10      H      -1.7471232977    -2.1497694643     0.5074743175
   11      H      -0.8422148104    -2.1765045489    -0.9940255619
   12      H      -2.7582525364    -0.5395021508    -1.1766960652
   13      H       0.1629225039     1.0124379968     0.6111130013
 ----------------------------------------------------------------
 Nuclear Repulsion Energy =   174.6185653757 hartrees
 There are       21 alpha and       21 beta electrons
 Applying Cartesian multipole field
    Component          Value
    ---------          -----
     (2,0,0)        1.00000E-11
     (0,2,0)        2.00000E-11
     (0,0,2)       -3.00000E-10
 Nucleus-field energy     =    -0.0000000087 hartrees
 Requested basis set is def2-TZVP
 There are 87 shells and 203 basis functions
 A cutoff of  1.0D-11 yielded   3427 shell pairs
 There are     18947 function pairs (     24010 Cartesian)
 Smallest overlap matrix eigenvalue = 4.91E-04
 Guess MOs from SCF MO coefficient file
 Reading MOs from coefficient file
 Reading MOs from coefficient file

 -----------------------------------------------------------------------
  General SCF calculation program by
  Eric Jon Sundstrom, Paul Horn, Yuezhi Mao, Dmitri Zuev, Alec White,
  David Stuck, Shaama M.S., Shane Yost, Joonho Lee, David Small,
  Daniel Levine, Susi Lehtola, Hugh Burton, Evgeny Epifanovsky
 -----------------------------------------------------------------------
 Exchange:     0.1957 Hartree-Fock + 1.0000 wB97X-D3 + LR-HF
 Correlation:  1.0000 wB97X-D3
 Using SG-2 standard quadrature grid
 Dispersion:   Grimme D3
 using 16 threads for integral computing
 -------------------------------------------------------
 OpenMP Integral computing Module                
 Release: version 1.0, May 2013, Q-Chem Inc. Pittsburgh 
 -------------------------------------------------------
 using 16 threads for integral computing
 -------------------------------------------------------
 OpenMP Integral computing Module                
 Release: version 1.0, May 2013, Q-Chem Inc. Pittsburgh 
 -------------------------------------------------------
 -------------------------------------------------------
 OpenMP BLAS3 based DFT computing Module                
 Release: version 1.0, May 2013, Q-Chem Inc. Pittsburgh 
 -------------------------------------------------------
 A unrestricted SCF calculation will be
 performed using DIIS
 SCF converges when DIIS error is below 1.0e-08
 ---------------------------------------
  Cycle       Energy         DIIS error
 ---------------------------------------
    1    -269.5922946016      5.36e-05  
    2    -269.5927551546      8.24e-06  
    3    -269.5927586429      3.78e-06  
    4    -269.5927590449      2.90e-06  
    5    -269.5927592614      7.56e-07  
    6    -269.5927593004      4.34e-07  
    7    -269.5927593164      2.06e-07  
    8    -269.5927593199      6.92e-08  
    9    -269.5927593202      1.60e-08  
   10    -269.5927593203      3.62e-09  Convergence criterion met
 ---------------------------------------
 SCF time:   CPU 272.42s  wall 21.00s 
<S^2> =         -0.000000000
 SCF   energy in the final basis set =     -269.5927593203
 Total energy in the final basis set =     -269.5927593203
 No wavefunction analysis requested
 Calculating analytic gradient of the SCF energy
 Gradient of SCF Energy
            1           2           3           4           5           6
    1  -0.0001857   0.0000937  -0.0000781   0.0000847   0.0000519   0.0000158
    2  -0.0001291   0.0002598   0.0000475   0.0006106  -0.0004412  -0.0000303
    3   0.0000681  -0.0003383   0.0000554  -0.0000753   0.0000072   0.0000052
            7           8           9          10          11          12
    1   0.0000375   0.0000461   0.0000415  -0.0000066  -0.0000034  -0.0000661
    2  -0.0000139   0.0000144  -0.0000125   0.0000003  -0.0000174  -0.0001349
    3  -0.0000024  -0.0000184   0.0000027   0.0000510   0.0000272  -0.0000872
           13
    1  -0.0000314
    2  -0.0001535
    3   0.0003047
 Max gradient component =       6.106E-04
 RMS gradient           =       1.601E-04
 Gradient time:  CPU 59.79 s  wall 4.74 s
 Geometry Optimization Parameters
   NAtoms,    NIC,     NZ,  NCons,   NDum,   NFix, NCnnct, MaxDiis
       13      69       0       0       0       0       0       0

 Cartesian Hessian Update
 Hessian Updated using BFGS Update


** GEOMETRY OPTIMIZATION IN DELOCALIZED INTERNAL COORDINATES **
   Searching for a Minimum

   Optimization Cycle:   5

                       Coordinates (Angstroms)
     ATOM                X               Y               Z
      1  C         1.9923996700    1.2508043183    0.0102937728
      2  O         1.0452030367    0.8526228323    0.9719031509
      3  C        -1.0897989544   -1.5529985276   -0.1308297490
      4  C        -1.8337412075   -0.3442985938   -0.5975094809
      5  O        -1.5002189529    0.7944953138   -0.3879347393
      6  H         2.9827389066    1.0337652280    0.4118829679
      7  H         1.8814858184    0.7051850320   -0.9354983728
      8  H         1.9379848804    2.3245438433   -0.2037649248
      9  H        -0.1865510568   -1.2764502793    0.4112986834
     10  H        -1.7471232977   -2.1497694643    0.5074743175
     11  H        -0.8422148104   -2.1765045489   -0.9940255619
     12  H        -2.7582525364   -0.5395021508   -1.1766960652
     13  H         0.1629225039    1.0124379968    0.6111130013
   Point Group: c1    Number of degrees of freedom:    33


   Energy is   -269.592759320

 Hessian Updated using BFGS Update

 28 Hessian modes will be used to form the next step
  Hessian Eigenvalues:
     0.001798    0.004305    0.008837    0.012972    0.017021    0.035927
     0.042820    0.073143    0.076814    0.101023    0.103774    0.124687
     0.154509    0.160949    0.163885    0.171854    0.250196    0.319704
     0.323950    0.329339    0.332197    0.334851    0.338108    0.341405
     0.349133    0.423219    0.516153    0.909032

 Minimum Search - Taking Simple RFO Step
 Searching for Lamda that Minimizes Along All modes
 Value Taken    Lamda =  -0.00000759
 Step Taken.  Stepsize is  0.046092

                             Maximum     Tolerance    Cnvgd?
         Gradient           0.000319      0.000100      NO
         Displacement       0.035474      0.000400      NO
         Energy change     -0.000005      0.000000      NO


 New Cartesian Coordinates Obtained by Inverse Iteration

 Displacement from previous Coordinates is:  0.102895
 Adding empirical dispersion correction 
 ----------------------------------------------------------------
 Doing -D3(0) with
 s6  =   1.00000
 s8  =   1.00000
 rs6 =   1.28100
 rs8 =   1.09400
 -D3 energy without 3body term =     -0.0026389421 hartrees
 ----------------------------------------------------------------
             Standard Nuclear Orientation (Angstroms)
    I     Atom           X                Y                Z
 ----------------------------------------------------------------
    1      C       2.0032172049     1.2600441500     0.0125481331
    2      O       1.0515643823     0.8468757943     0.9638065888
    3      C      -1.0999832742    -1.5596359037    -0.1299510907
    4      C      -1.8414953856    -0.3496921142    -0.5977182652
    5      O      -1.4995879756     0.7884537302    -0.3961953231
    6      H       2.9921613887     1.0469853129     0.4197345466
    7      H       1.9032593960     0.7217952704    -0.9388140452
    8      H       1.9425549404     2.3351977252    -0.1930042569
    9      H      -0.1952782027    -1.2826324993     0.4096851162
   10      H      -1.7570830578    -2.1533142412     0.5113808550
   11      H      -0.8550173290    -2.1856790993    -0.9921119717
   12      H      -2.7704899921    -0.5412179128    -1.1702801562
   13      H       0.1710119045     1.0071507875     0.5986268693
 ----------------------------------------------------------------
 Nuclear Repulsion Energy =   174.3856385155 hartrees
 There are       21 alpha and       21 beta electrons
 Applying Cartesian multipole field
    Component          Value
    ---------          -----
     (2,0,0)        1.00000E-11
     (0,2,0)        2.00000E-11
     (0,0,2)       -3.00000E-10
 Nucleus-field energy     =    -0.0000000085 hartrees
 Requested basis set is def2-TZVP
 There are 87 shells and 203 basis functions
 A cutoff of  1.0D-11 yielded   3419 shell pairs
 There are     18869 function pairs (     23906 Cartesian)
 Smallest overlap matrix eigenvalue = 4.91E-04
 Guess MOs from SCF MO coefficient file
 Reading MOs from coefficient file
 Reading MOs from coefficient file

 -----------------------------------------------------------------------
  General SCF calculation program by
  Eric Jon Sundstrom, Paul Horn, Yuezhi Mao, Dmitri Zuev, Alec White,
  David Stuck, Shaama M.S., Shane Yost, Joonho Lee, David Small,
  Daniel Levine, Susi Lehtola, Hugh Burton, Evgeny Epifanovsky
 -----------------------------------------------------------------------
 Exchange:     0.1957 Hartree-Fock + 1.0000 wB97X-D3 + LR-HF
 Correlation:  1.0000 wB97X-D3
 Using SG-2 standard quadrature grid
 Dispersion:   Grimme D3
 using 16 threads for integral computing
 -------------------------------------------------------
 OpenMP Integral computing Module                
 Release: version 1.0, May 2013, Q-Chem Inc. Pittsburgh 
 -------------------------------------------------------
 using 16 threads for integral computing
 -------------------------------------------------------
 OpenMP Integral computing Module                
 Release: version 1.0, May 2013, Q-Chem Inc. Pittsburgh 
 -------------------------------------------------------
 -------------------------------------------------------
 OpenMP BLAS3 based DFT computing Module                
 Release: version 1.0, May 2013, Q-Chem Inc. Pittsburgh 
 -------------------------------------------------------
 A unrestricted SCF calculation will be
 performed using DIIS
 SCF converges when DIIS error is below 1.0e-08
 ---------------------------------------
  Cycle       Energy         DIIS error
 ---------------------------------------
    1    -269.5917001420      1.30e-04  
    2    -269.5927510644      1.54e-05  
    3    -269.5927629269      5.37e-06  
    4    -269.5927640624      2.72e-06  
    5    -269.5927642439      1.85e-06  
    6    -269.5927643102      3.84e-07  
    7    -269.5927643196      1.67e-07  
    8    -269.5927643219      5.86e-08  
    9    -269.5927643223      3.20e-08  
   10    -269.5927643224      1.43e-08  
   11    -269.5927643224      3.25e-09  Convergence criterion met
 ---------------------------------------
 SCF time:   CPU 293.33s  wall 26.00s 
<S^2> =         -0.000000000
 SCF   energy in the final basis set =     -269.5927643224
 Total energy in the final basis set =     -269.5927643224
 No wavefunction analysis requested
 Calculating analytic gradient of the SCF energy
 Gradient of SCF Energy
            1           2           3           4           5           6
    1  -0.0001725   0.0002287   0.0000262  -0.0003841   0.0001630   0.0000471
    2  -0.0001147   0.0001301  -0.0001297  -0.0000109   0.0000276  -0.0000175
    3   0.0001193   0.0000013  -0.0000614  -0.0001104   0.0000115  -0.0000020
            7           8           9          10          11          12
    1   0.0000365   0.0000599   0.0000272  -0.0000081   0.0000073   0.0000627
    2  -0.0000232   0.0000624   0.0001079   0.0000381  -0.0000544   0.0000290
    3  -0.0001301  -0.0000713   0.0000805   0.0000693   0.0000047  -0.0000629
           13
    1  -0.0000941
    2  -0.0000447
    3   0.0001515
 Max gradient component =       3.841E-04
 RMS gradient           =       1.062E-04
 Gradient time:  CPU 60.71 s  wall 4.90 s
 Geometry Optimization Parameters
   NAtoms,    NIC,     NZ,  NCons,   NDum,   NFix, NCnnct, MaxDiis
       13      69       0       0       0       0       0       0

 Cartesian Hessian Update
 Hessian Updated using BFGS Update


** GEOMETRY OPTIMIZATION IN DELOCALIZED INTERNAL COORDINATES **
   Searching for a Minimum

   Optimization Cycle:   6

                       Coordinates (Angstroms)
     ATOM                X               Y               Z
      1  C         2.0032172049    1.2600441500    0.0125481331
      2  O         1.0515643823    0.8468757943    0.9638065888
      3  C        -1.0999832742   -1.5596359037   -0.1299510907
      4  C        -1.8414953856   -0.3496921142   -0.5977182652
      5  O        -1.4995879756    0.7884537302   -0.3961953231
      6  H         2.9921613887    1.0469853129    0.4197345466
      7  H         1.9032593960    0.7217952704   -0.9388140452
      8  H         1.9425549404    2.3351977252   -0.1930042569
      9  H        -0.1952782027   -1.2826324993    0.4096851162
     10  H        -1.7570830578   -2.1533142412    0.5113808550
     11  H        -0.8550173290   -2.1856790993   -0.9921119717
     12  H        -2.7704899921   -0.5412179128   -1.1702801562
     13  H         0.1710119045    1.0071507875    0.5986268693
   Point Group: c1    Number of degrees of freedom:    33


   Energy is   -269.592764322

 Hessian Updated using BFGS Update

 29 Hessian modes will be used to form the next step
  Hessian Eigenvalues:
     0.001075    0.003527    0.008818    0.012973    0.018018    0.036113
     0.044827    0.074254    0.077696    0.100937    0.103798    0.123333
     0.152938    0.160766    0.161984    0.170490    0.178988    0.249282
     0.321843    0.326059    0.330290    0.333528    0.335248    0.337881
     0.341605    0.349509    0.426489    0.528855    0.953276

 Minimum Search - Taking Simple RFO Step
 Searching for Lamda that Minimizes Along All modes
 Value Taken    Lamda =  -0.00000693
 Step Taken.  Stepsize is  0.065384

                             Maximum     Tolerance    Cnvgd?
         Gradient           0.000238      0.000100      NO
         Displacement       0.056757      0.000400      NO
         Energy change     -0.000005      0.000000      NO


 New Cartesian Coordinates Obtained by Inverse Iteration

 Displacement from previous Coordinates is:  0.088978
 Adding empirical dispersion correction 
 ----------------------------------------------------------------
 Doing -D3(0) with
 s6  =   1.00000
 s8  =   1.00000
 rs6 =   1.28100
 rs8 =   1.09400
 -D3 energy without 3body term =     -0.0026229528 hartrees
 ----------------------------------------------------------------
             Standard Nuclear Orientation (Angstroms)
    I     Atom           X                Y                Z
 ----------------------------------------------------------------
    1      C       2.0125193457     1.2654226275     0.0156055231
    2      O       1.0526185425     0.8444333930     0.9554785720
    3      C      -1.1058013081    -1.5631374191    -0.1309807449
    4      C      -1.8495116798    -0.3537560112    -0.5963861129
    5      O      -1.5030861933     0.7846937117    -0.4030767045
    6      H       2.9981591724     1.0572724164     0.4331319175
    7      H       1.9254964231     0.7287276901    -0.9377768396
    8      H       1.9473349452     2.3406400638    -0.1879044353
    9      H      -0.1980475235    -1.2851707632     0.4028914688
   10      H      -1.7591091175    -2.1564997415     0.5144035246
   11      H      -0.8653105822    -2.1896575548    -0.9939973343
   12      H      -2.7855746490    -0.5444565950    -1.1571352384
   13      H       0.1751466244     1.0058191824     0.5834534039
 ----------------------------------------------------------------
 Nuclear Repulsion Energy =   174.2223708528 hartrees
 There are       21 alpha and       21 beta electrons
 Applying Cartesian multipole field
    Component          Value
    ---------          -----
     (2,0,0)        1.00000E-11
     (0,2,0)        2.00000E-11
     (0,0,2)       -3.00000E-10
 Nucleus-field energy     =    -0.0000000083 hartrees
 Requested basis set is def2-TZVP
 There are 87 shells and 203 basis functions
 A cutoff of  1.0D-11 yielded   3413 shell pairs
 There are     18795 function pairs (     23806 Cartesian)
 Smallest overlap matrix eigenvalue = 4.91E-04
 Guess MOs from SCF MO coefficient file
 Reading MOs from coefficient file
 Reading MOs from coefficient file

 -----------------------------------------------------------------------
  General SCF calculation program by
  Eric Jon Sundstrom, Paul Horn, Yuezhi Mao, Dmitri Zuev, Alec White,
  David Stuck, Shaama M.S., Shane Yost, Joonho Lee, David Small,
  Daniel Levine, Susi Lehtola, Hugh Burton, Evgeny Epifanovsky
 -----------------------------------------------------------------------
 Exchange:     0.1957 Hartree-Fock + 1.0000 wB97X-D3 + LR-HF
 Correlation:  1.0000 wB97X-D3
 Using SG-2 standard quadrature grid
 Dispersion:   Grimme D3
 using 16 threads for integral computing
 -------------------------------------------------------
 OpenMP Integral computing Module                
 Release: version 1.0, May 2013, Q-Chem Inc. Pittsburgh 
 -------------------------------------------------------
 using 16 threads for integral computing
 -------------------------------------------------------
 OpenMP Integral computing Module                
 Release: version 1.0, May 2013, Q-Chem Inc. Pittsburgh 
 -------------------------------------------------------
 -------------------------------------------------------
 OpenMP BLAS3 based DFT computing Module                
 Release: version 1.0, May 2013, Q-Chem Inc. Pittsburgh 
 -------------------------------------------------------
 A unrestricted SCF calculation will be
 performed using DIIS
 SCF converges when DIIS error is below 1.0e-08
 ---------------------------------------
  Cycle       Energy         DIIS error
 ---------------------------------------
    1    -269.5921180742      1.09e-04  
    2    -269.5927562571      1.45e-05  
    3    -269.5927673903      6.23e-06  
    4    -269.5927686498      4.74e-06  
    5    -269.5927691824      1.70e-06  
    6    -269.5927693136      5.22e-07  
    7    -269.5927693450      2.46e-07  
    8    -269.5927693521      8.03e-08  
    9    -269.5927693527      3.89e-08  
   10    -269.5927693528      1.59e-08  
   11    -269.5927693528      3.05e-09  Convergence criterion met
 ---------------------------------------
 SCF time:   CPU 291.18s  wall 22.00s 
<S^2> =         -0.000000000
 SCF   energy in the final basis set =     -269.5927693528
 Total energy in the final basis set =     -269.5927693528
 No wavefunction analysis requested
 Calculating analytic gradient of the SCF energy
 Gradient of SCF Energy
            1           2           3           4           5           6
    1   0.0000252   0.0001546   0.0000121  -0.0003669   0.0000787   0.0000489
    2  -0.0000709   0.0000679  -0.0001535  -0.0005143   0.0003275  -0.0000140
    3   0.0000353   0.0001203   0.0000169  -0.0004257   0.0000869  -0.0000091
            7           8           9          10          11          12
    1  -0.0000162   0.0000107  -0.0000047   0.0000048  -0.0000094   0.0000922
    2  -0.0000203   0.0000406   0.0001164   0.0000242   0.0000072   0.0001717
    3  -0.0000816  -0.0000548   0.0000565   0.0000679   0.0000342   0.0000715
           13
    1  -0.0000300
    2   0.0000175
    3   0.0000817
 Max gradient component =       5.143E-04
 RMS gradient           =       1.489E-04
 Gradient time:  CPU 60.02 s  wall 5.00 s
 Geometry Optimization Parameters
   NAtoms,    NIC,     NZ,  NCons,   NDum,   NFix, NCnnct, MaxDiis
       13      69       0       0       0       0       0       0

 Cartesian Hessian Update
 Hessian Updated using BFGS Update


** GEOMETRY OPTIMIZATION IN DELOCALIZED INTERNAL COORDINATES **
   Searching for a Minimum

   Optimization Cycle:   7

                       Coordinates (Angstroms)
     ATOM                X               Y               Z
      1  C         2.0125193457    1.2654226275    0.0156055231
      2  O         1.0526185425    0.8444333930    0.9554785720
      3  C        -1.1058013081   -1.5631374191   -0.1309807449
      4  C        -1.8495116798   -0.3537560112   -0.5963861129
      5  O        -1.5030861933    0.7846937117   -0.4030767045
      6  H         2.9981591724    1.0572724164    0.4331319175
      7  H         1.9254964231    0.7287276901   -0.9377768396
      8  H         1.9473349452    2.3406400638   -0.1879044353
      9  H        -0.1980475235   -1.2851707632    0.4028914688
     10  H        -1.7591091175   -2.1564997415    0.5144035246
     11  H        -0.8653105822   -2.1896575548   -0.9939973343
     12  H        -2.7855746490   -0.5444565950   -1.1571352384
     13  H         0.1751466244    1.0058191824    0.5834534039
   Point Group: c1    Number of degrees of freedom:    33


   Energy is   -269.592769353

 Hessian Updated using BFGS Update

 30 Hessian modes will be used to form the next step
  Hessian Eigenvalues:
     0.000569    0.003204    0.008788    0.012948    0.021166    0.036555
     0.041603    0.074484    0.076387    0.101608    0.103827    0.118141
     0.152957    0.160481    0.161554    0.162937    0.169088    0.185229
     0.241869    0.321507    0.328920    0.330113    0.332072    0.335312
     0.339517    0.341624    0.348191    0.428522    0.525858    0.979301

 Minimum Search - Taking Simple RFO Step
 Searching for Lamda that Minimizes Along All modes
 Value Taken    Lamda =  -0.00001093
 Step Taken.  Stepsize is  0.111705

                             Maximum     Tolerance    Cnvgd?
         Gradient           0.000373      0.000100      NO
         Displacement       0.093639      0.000400      NO
         Energy change     -0.000005      0.000000      NO


 New Cartesian Coordinates Obtained by Inverse Iteration

 Displacement from previous Coordinates is:  0.163268
 Adding empirical dispersion correction 
 ----------------------------------------------------------------
 Doing -D3(0) with
 s6  =   1.00000
 s8  =   1.00000
 rs6 =   1.28100
 rs8 =   1.09400
 -D3 energy without 3body term =     -0.0025943247 hartrees
 ----------------------------------------------------------------
             Standard Nuclear Orientation (Angstroms)
    I     Atom           X                Y                Z
 ----------------------------------------------------------------
    1      C       2.0277868205     1.2753679843     0.0204266771
    2      O       1.0538333538     0.8334266273     0.9363943381
    3      C      -1.1160665387    -1.5682677122    -0.1305500155
    4      C      -1.8625251636    -0.3596788217    -0.5925710469
    5      O      -1.5063432008     0.7789171602    -0.4180800200
    6      H       3.0068815626     1.0743256107     0.4562350439
    7      H       1.9658514250     0.7473278337    -0.9394956784
    8      H       1.9536654092     2.3517453168    -0.1729158125
    9      H      -0.2022135018    -1.2904529922     0.3927190560
   10      H      -1.7638389327    -2.1594318731     0.5221966692
   11      H      -0.8850247049    -2.1969160724    -0.9946628503
   12      H      -2.8089796246    -0.5504005361    -1.1354365884
   13      H       0.1818070959     0.9983684747     0.5534472278
 ----------------------------------------------------------------
 Nuclear Repulsion Energy =   174.0253407048 hartrees
 There are       21 alpha and       21 beta electrons
 Applying Cartesian multipole field
    Component          Value
    ---------          -----
     (2,0,0)        1.00000E-11
     (0,2,0)        2.00000E-11
     (0,0,2)       -3.00000E-10
 Nucleus-field energy     =    -0.0000000080 hartrees
 Requested basis set is def2-TZVP
 There are 87 shells and 203 basis functions
 A cutoff of  1.0D-11 yielded   3410 shell pairs
 There are     18784 function pairs (     23794 Cartesian)
 Smallest overlap matrix eigenvalue = 4.89E-04
 Guess MOs from SCF MO coefficient file
 Reading MOs from coefficient file
 Reading MOs from coefficient file

 -----------------------------------------------------------------------
  General SCF calculation program by
  Eric Jon Sundstrom, Paul Horn, Yuezhi Mao, Dmitri Zuev, Alec White,
  David Stuck, Shaama M.S., Shane Yost, Joonho Lee, David Small,
  Daniel Levine, Susi Lehtola, Hugh Burton, Evgeny Epifanovsky
 -----------------------------------------------------------------------
 Exchange:     0.1957 Hartree-Fock + 1.0000 wB97X-D3 + LR-HF
 Correlation:  1.0000 wB97X-D3
 Using SG-2 standard quadrature grid
 Dispersion:   Grimme D3
 using 16 threads for integral computing
 -------------------------------------------------------
 OpenMP Integral computing Module                
 Release: version 1.0, May 2013, Q-Chem Inc. Pittsburgh 
 -------------------------------------------------------
 using 16 threads for integral computing
 -------------------------------------------------------
 OpenMP Integral computing Module                
 Release: version 1.0, May 2013, Q-Chem Inc. Pittsburgh 
 -------------------------------------------------------
 -------------------------------------------------------
 OpenMP BLAS3 based DFT computing Module                
 Release: version 1.0, May 2013, Q-Chem Inc. Pittsburgh 
 -------------------------------------------------------
 A unrestricted SCF calculation will be
 performed using DIIS
 SCF converges when DIIS error is below 1.0e-08
 ---------------------------------------
  Cycle       Energy         DIIS error
 ---------------------------------------
    1    -269.5912153089      2.37e-04  
    2    -269.5927236839      2.99e-05  
    3    -269.5927691099      1.21e-05  
    4    -269.5927738430      8.26e-06  
    5    -269.5927753926      3.66e-06  
    6    -269.5927757969      1.02e-06  
    7    -269.5927758784      5.29e-07  
    8    -269.5927759034      2.34e-07  
    9    -269.5927759072      9.29e-08  
   10    -269.5927759080      2.56e-08  
   11    -269.5927759080      6.40e-09  Convergence criterion met
 ---------------------------------------
 SCF time:   CPU 294.39s  wall 22.00s 
<S^2> =         -0.000000000
 SCF   energy in the final basis set =     -269.5927759080
 Total energy in the final basis set =     -269.5927759080
 No wavefunction analysis requested
 Calculating analytic gradient of the SCF energy
 Gradient of SCF Energy
            1           2           3           4           5           6
    1   0.0001964   0.0000127   0.0000845  -0.0005526   0.0000657  -0.0000070
    2   0.0000355  -0.0000365  -0.0000289  -0.0008294   0.0004394  -0.0000249
    3  -0.0001420   0.0002137  -0.0000902  -0.0000186  -0.0000741   0.0000162
            7           8           9          10          11          12
    1  -0.0000373  -0.0000301  -0.0000210  -0.0000215   0.0000032   0.0001869
    2  -0.0000120  -0.0000094   0.0000796   0.0000744   0.0000158   0.0002287
    3  -0.0000053  -0.0000131   0.0000253   0.0000168   0.0000585  -0.0000163
           13
    1   0.0001203
    2   0.0000678
    3   0.0000291
 Max gradient component =       8.294E-04
 RMS gradient           =       1.927E-04
 Gradient time:  CPU 60.73 s  wall 4.86 s
 Geometry Optimization Parameters
   NAtoms,    NIC,     NZ,  NCons,   NDum,   NFix, NCnnct, MaxDiis
       13      69       0       0       0       0       0       0

 Cartesian Hessian Update
 Hessian Updated using BFGS Update


** GEOMETRY OPTIMIZATION IN DELOCALIZED INTERNAL COORDINATES **
   Searching for a Minimum

   Optimization Cycle:   8

                       Coordinates (Angstroms)
     ATOM                X               Y               Z
      1  C         2.0277868205    1.2753679843    0.0204266771
      2  O         1.0538333538    0.8334266273    0.9363943381
      3  C        -1.1160665387   -1.5682677122   -0.1305500155
      4  C        -1.8625251636   -0.3596788217   -0.5925710469
      5  O        -1.5063432008    0.7789171602   -0.4180800200
      6  H         3.0068815626    1.0743256107    0.4562350439
      7  H         1.9658514250    0.7473278337   -0.9394956784
      8  H         1.9536654092    2.3517453168   -0.1729158125
      9  H        -0.2022135018   -1.2904529922    0.3927190560
     10  H        -1.7638389327   -2.1594318731    0.5221966692
     11  H        -0.8850247049   -2.1969160724   -0.9946628503
     12  H        -2.8089796246   -0.5504005361   -1.1354365884
     13  H         0.1818070959    0.9983684747    0.5534472278
   Point Group: c1    Number of degrees of freedom:    33


   Energy is   -269.592775908

 Hessian Updated using BFGS Update

 31 Hessian modes will be used to form the next step
  Hessian Eigenvalues:
     0.000494    0.003254    0.008773    0.012914    0.024671    0.034745
     0.036695    0.074524    0.075976    0.101538    0.103828    0.116223
     0.152789    0.160221    0.161140    0.162627    0.163357    0.166606
     0.180101    0.239472    0.322041    0.327196    0.329912    0.332107
     0.335383    0.339288    0.341587    0.350394    0.427928    0.522780
     0.956250

 Minimum Search - Taking Simple RFO Step
 Searching for Lamda that Minimizes Along All modes
 Value Taken    Lamda =  -0.00000610
 Step Taken.  Stepsize is  0.058603

                             Maximum     Tolerance    Cnvgd?
         Gradient           0.000443      0.000100      NO
         Displacement       0.050298      0.000400      NO
         Energy change     -0.000007      0.000000      NO


 New Cartesian Coordinates Obtained by Inverse Iteration

 Displacement from previous Coordinates is:  0.069989
 Adding empirical dispersion correction 
 ----------------------------------------------------------------
 Doing -D3(0) with
 s6  =   1.00000
 s8  =   1.00000
 rs6 =   1.28100
 rs8 =   1.09400
 -D3 energy without 3body term =     -0.0025850900 hartrees
 ----------------------------------------------------------------
             Standard Nuclear Orientation (Angstroms)
    I     Atom           X                Y                Z
 ----------------------------------------------------------------
    1      C       2.0319956939     1.2769299611     0.0227598096
    2      O       1.0500314154     0.8282051722     0.9268142643
    3      C      -1.1171026029    -1.5681097230    -0.1309122788
    4      C      -1.8660984774    -0.3602727886    -0.5905955348
    5      O      -1.5085133095     0.7789105553    -0.4240679578
    6      H       3.0070952170     1.0789977931     0.4687716318
    7      H       1.9827722046     0.7510496883    -0.9390089438
    8      H       1.9554021123     2.3534596057    -0.1683296392
    9      H      -0.1997845247    -1.2908379362     0.3864090057
   10      H      -1.7613417695    -2.1590116472     0.5255437738
   11      H      -0.8916528650    -2.1973435906    -0.9962115993
   12      H      -2.8189787518    -0.5534457140    -1.1216867119
   13      H       0.1810096573     0.9957996238     0.5382211804
 ----------------------------------------------------------------
 Nuclear Repulsion Energy =   174.0358447311 hartrees
 There are       21 alpha and       21 beta electrons
 Applying Cartesian multipole field
    Component          Value
    ---------          -----
     (2,0,0)        1.00000E-11
     (0,2,0)        2.00000E-11
     (0,0,2)       -3.00000E-10
 Nucleus-field energy     =    -0.0000000078 hartrees
 Requested basis set is def2-TZVP
 There are 87 shells and 203 basis functions
 A cutoff of  1.0D-11 yielded   3410 shell pairs
 There are     18768 function pairs (     23770 Cartesian)
 Smallest overlap matrix eigenvalue = 4.89E-04
 Guess MOs from SCF MO coefficient file
 Reading MOs from coefficient file
 Reading MOs from coefficient file

 -----------------------------------------------------------------------
  General SCF calculation program by
  Eric Jon Sundstrom, Paul Horn, Yuezhi Mao, Dmitri Zuev, Alec White,
  David Stuck, Shaama M.S., Shane Yost, Joonho Lee, David Small,
  Daniel Levine, Susi Lehtola, Hugh Burton, Evgeny Epifanovsky
 -----------------------------------------------------------------------
 Exchange:     0.1957 Hartree-Fock + 1.0000 wB97X-D3 + LR-HF
 Correlation:  1.0000 wB97X-D3
 Using SG-2 standard quadrature grid
 Dispersion:   Grimme D3
 using 16 threads for integral computing
 -------------------------------------------------------
 OpenMP Integral computing Module                
 Release: version 1.0, May 2013, Q-Chem Inc. Pittsburgh 
 -------------------------------------------------------
 using 16 threads for integral computing
 -------------------------------------------------------
 OpenMP Integral computing Module                
 Release: version 1.0, May 2013, Q-Chem Inc. Pittsburgh 
 -------------------------------------------------------
 -------------------------------------------------------
 OpenMP BLAS3 based DFT computing Module                
 Release: version 1.0, May 2013, Q-Chem Inc. Pittsburgh 
 -------------------------------------------------------
 A unrestricted SCF calculation will be
 performed using DIIS
 SCF converges when DIIS error is below 1.0e-08
 ---------------------------------------
  Cycle       Energy         DIIS error
 ---------------------------------------
    1    -269.5925785638      1.01e-04  
    2    -269.5927684533      1.34e-05  
    3    -269.5927780368      4.57e-06  
    4    -269.5927792185      2.14e-06  
    5    -269.5927794511      1.47e-06  
    6    -269.5927795214      5.35e-07  
    7    -269.5927795489      2.18e-07  
    8    -269.5927795539      6.69e-08  
    9    -269.5927795544      2.47e-08  
   10    -269.5927795544      1.23e-08  
   11    -269.5927795544      3.15e-09  Convergence criterion met
 ---------------------------------------
 SCF time:   CPU 294.54s  wall 23.00s 
<S^2> =         -0.000000000
 SCF   energy in the final basis set =     -269.5927795544
 Total energy in the final basis set =     -269.5927795544
 No wavefunction analysis requested
 Calculating analytic gradient of the SCF energy
 Gradient of SCF Energy
            1           2           3           4           5           6
    1   0.0002188  -0.0001068  -0.0000436  -0.0000001  -0.0001359  -0.0000258
    2   0.0000881  -0.0000751   0.0000523  -0.0004973   0.0002887  -0.0000195
    3  -0.0001756   0.0001420   0.0000744  -0.0002399  -0.0000193   0.0000145
            7           8           9          10          11          12
    1  -0.0000282  -0.0000188  -0.0000351  -0.0000044  -0.0000188   0.0000423
    2  -0.0000189  -0.0000418   0.0000145   0.0000100   0.0000197   0.0001229
    3   0.0000361   0.0000058   0.0000030   0.0000107   0.0000246   0.0000847
           13
    1   0.0001565
    2   0.0000563
    3   0.0000391
 Max gradient component =       4.973E-04
 RMS gradient           =       1.244E-04
 Gradient time:  CPU 60.06 s  wall 4.74 s
 Geometry Optimization Parameters
   NAtoms,    NIC,     NZ,  NCons,   NDum,   NFix, NCnnct, MaxDiis
       13      69       0       0       0       0       0       0

 Cartesian Hessian Update
 Hessian Updated using BFGS Update


** GEOMETRY OPTIMIZATION IN DELOCALIZED INTERNAL COORDINATES **
   Searching for a Minimum

   Optimization Cycle:   9

                       Coordinates (Angstroms)
     ATOM                X               Y               Z
      1  C         2.0319956939    1.2769299611    0.0227598096
      2  O         1.0500314154    0.8282051722    0.9268142643
      3  C        -1.1171026029   -1.5681097230   -0.1309122788
      4  C        -1.8660984774   -0.3602727886   -0.5905955348
      5  O        -1.5085133095    0.7789105553   -0.4240679578
      6  H         3.0070952170    1.0789977931    0.4687716318
      7  H         1.9827722046    0.7510496883   -0.9390089438
      8  H         1.9554021123    2.3534596057   -0.1683296392
      9  H        -0.1997845247   -1.2908379362    0.3864090057
     10  H        -1.7613417695   -2.1590116472    0.5255437738
     11  H        -0.8916528650   -2.1973435906   -0.9962115993
     12  H        -2.8189787518   -0.5534457140   -1.1216867119
     13  H         0.1810096573    0.9957996238    0.5382211804
   Point Group: c1    Number of degrees of freedom:    33


   Energy is   -269.592779554

 Hessian Updated using BFGS Update

 32 Hessian modes will be used to form the next step
  Hessian Eigenvalues:
     0.000509    0.003417    0.008762    0.012743    0.022975    0.029882
     0.036716    0.074817    0.076747    0.101384    0.103849    0.119859
     0.152375    0.156891    0.160005    0.160710    0.161679    0.164182
     0.166319    0.173680    0.242631    0.322113    0.322651    0.329922
     0.332433    0.335387    0.338387    0.341286    0.348853    0.423366
     0.523273    0.917335

 Minimum Search - Taking Simple RFO Step
 Searching for Lamda that Minimizes Along All modes
 Value Taken    Lamda =  -0.00000264
 Step Taken.  Stepsize is  0.020179

                             Maximum     Tolerance    Cnvgd?
         Gradient           0.000223      0.000100      NO
         Displacement       0.014748      0.000400      NO
         Energy change     -0.000004      0.000000      NO


 New Cartesian Coordinates Obtained by Inverse Iteration

 Displacement from previous Coordinates is:  0.056774
 Adding empirical dispersion correction 
 ----------------------------------------------------------------
 Doing -D3(0) with
 s6  =   1.00000
 s8  =   1.00000
 rs6 =   1.28100
 rs8 =   1.09400
 -D3 energy without 3body term =     -0.0025906435 hartrees
 ----------------------------------------------------------------
             Standard Nuclear Orientation (Angstroms)
    I     Atom           X                Y                Z
 ----------------------------------------------------------------
    1      C       2.0284114309     1.2715180536     0.0232411066
    2      O       1.0430831313     0.8317748608     0.9276701805
    3      C      -1.1112433411    -1.5641317101    -0.1328140462
    4      C      -1.8658708799    -0.3577497171    -0.5873293428
    5      O      -1.5115822766     0.7823044925    -0.4213277000
    6      H       3.0019366556     1.0747752007     0.4732606700
    7      H       1.9807926289     0.7386325445    -0.9347626700
    8      H       1.9550106217     2.3467852010    -0.1760868670
    9      H      -0.1931021513    -1.2857446020     0.3824287007
   10      H      -1.7518049549    -2.1588570343     0.5237967155
   11      H      -0.8866470181    -2.1903966391    -1.0005405935
   12      H      -2.8193645574    -0.5544725455    -1.1164846208
   13      H       0.1752147109     0.9998928949     0.5366554668
 ----------------------------------------------------------------
 Nuclear Repulsion Energy =   174.1542327036 hartrees
 There are       21 alpha and       21 beta electrons
 Applying Cartesian multipole field
    Component          Value
    ---------          -----
     (2,0,0)        1.00000E-11
     (0,2,0)        2.00000E-11
     (0,0,2)       -3.00000E-10
 Nucleus-field energy     =    -0.0000000078 hartrees
 Requested basis set is def2-TZVP
 There are 87 shells and 203 basis functions
 A cutoff of  1.0D-11 yielded   3410 shell pairs
 There are     18768 function pairs (     23770 Cartesian)
 Smallest overlap matrix eigenvalue = 4.89E-04
 Guess MOs from SCF MO coefficient file
 Reading MOs from coefficient file
 Reading MOs from coefficient file

 -----------------------------------------------------------------------
  General SCF calculation program by
  Eric Jon Sundstrom, Paul Horn, Yuezhi Mao, Dmitri Zuev, Alec White,
  David Stuck, Shaama M.S., Shane Yost, Joonho Lee, David Small,
  Daniel Levine, Susi Lehtola, Hugh Burton, Evgeny Epifanovsky
 -----------------------------------------------------------------------
 Exchange:     0.1957 Hartree-Fock + 1.0000 wB97X-D3 + LR-HF
 Correlation:  1.0000 wB97X-D3
 Using SG-2 standard quadrature grid
 Dispersion:   Grimme D3
 using 16 threads for integral computing
 -------------------------------------------------------
 OpenMP Integral computing Module                
 Release: version 1.0, May 2013, Q-Chem Inc. Pittsburgh 
 -------------------------------------------------------
 using 16 threads for integral computing
 -------------------------------------------------------
 OpenMP Integral computing Module                
 Release: version 1.0, May 2013, Q-Chem Inc. Pittsburgh 
 -------------------------------------------------------
 -------------------------------------------------------
 OpenMP BLAS3 based DFT computing Module                
 Release: version 1.0, May 2013, Q-Chem Inc. Pittsburgh 
 -------------------------------------------------------
 A unrestricted SCF calculation will be
 performed using DIIS
[...]
 H          0.308  0.388  0.003    0.236  0.012  0.066   -0.301  0.439 -0.205
 H         -0.095  0.254  0.271    0.357 -0.028  0.158    0.234  0.123  0.476
 H         -0.109 -0.141 -0.039    0.181  0.110 -0.241    0.020  0.107  0.122
 H         -0.197  0.043  0.131    0.292 -0.049  0.061    0.030  0.080  0.091
 H         -0.311 -0.150  0.071   -0.021  0.080 -0.121    0.116 -0.002  0.143
 H         -0.130  0.060  0.095   -0.265 -0.100  0.436    0.113 -0.063 -0.124
 H          0.089 -0.135 -0.126    0.015  0.112 -0.238   -0.034  0.034  0.011
 TransDip  -0.044  0.036  0.036    0.070  0.004  0.042    0.055  0.052  0.038

 Mode:                 4                      5                      6
 Frequency:       110.70                 120.45                 170.69
 Force Cnst:      0.0147                 0.0188                 0.0229
 Red. Mass:       2.0348                 2.2035                 1.3328
 IR Active:          YES                    YES                    YES
 IR Intens:        5.039                  8.163                  1.928
 Raman Active:       YES                    YES                    YES
               X      Y      Z        X      Y      Z        X      Y      Z
 C          0.040  0.005 -0.017   -0.148 -0.002 -0.025    0.027 -0.004  0.004
 O          0.057  0.173  0.084   -0.042 -0.052  0.067    0.054  0.005  0.040
 C         -0.108 -0.093 -0.067    0.049  0.010 -0.034    0.012  0.015 -0.011
 C         -0.047 -0.032 -0.004   -0.004  0.034  0.116    0.008 -0.017 -0.089
 O          0.047 -0.063 -0.001    0.159  0.018 -0.123   -0.097 -0.002  0.028
 H          0.057 -0.491 -0.271   -0.092 -0.003 -0.147    0.039  0.026 -0.009
 H         -0.365  0.252 -0.132   -0.253  0.036 -0.041    0.016 -0.034  0.021
 H          0.425  0.082  0.253   -0.191  0.004  0.024    0.004 -0.011 -0.027
 H         -0.083 -0.157 -0.077    0.260 -0.024 -0.391    0.224  0.047 -0.404
 H         -0.122 -0.086 -0.074    0.233  0.137  0.262    0.151  0.372  0.453
 H         -0.157 -0.071 -0.096   -0.332 -0.099 -0.052   -0.427 -0.350  0.146
 H         -0.088  0.048  0.041   -0.207  0.073  0.468    0.081 -0.059 -0.207
 H          0.050  0.122  0.081   -0.065 -0.093  0.099    0.038  0.029  0.086
 TransDip  -0.045 -0.048 -0.029   -0.077 -0.005  0.049    0.041  0.017  0.001

 Mode:                 7                      8                      9
 Frequency:       187.77                 533.42                 650.70
 Force Cnst:      0.0811                 0.4335                 0.2616
 Red. Mass:       3.9046                 2.5856                 1.0487
 IR Active:          YES                    YES                    YES
 IR Intens:        5.576                 14.872                183.360
 Raman Active:       YES                    YES                    YES
               X      Y      Z        X      Y      Z        X      Y      Z
 C          0.007  0.026 -0.033   -0.003 -0.001  0.002    0.001 -0.001 -0.002
 O          0.239 -0.071  0.188   -0.006  0.003 -0.004   -0.007 -0.032 -0.025
 C          0.038  0.080  0.026   -0.009  0.173 -0.010   -0.012 -0.008 -0.003
 C         -0.142 -0.036  0.009   -0.178 -0.034 -0.101   -0.007 -0.007  0.004
 O         -0.173  0.004 -0.205    0.133 -0.164  0.083    0.022 -0.017 -0.001
 H          0.122  0.153 -0.229   -0.004 -0.011 -0.000   -0.011  0.051  0.047
 H         -0.140 -0.005 -0.007   -0.005  0.004 -0.001    0.054 -0.015  0.002
 H         -0.172  0.010 -0.039    0.004  0.001  0.007   -0.030 -0.008 -0.012
 H         -0.104  0.225  0.203   -0.125  0.715 -0.088   -0.017  0.063 -0.032
 H          0.073 -0.188 -0.186    0.276  0.072  0.171    0.019 -0.035  0.003
 H          0.368  0.272 -0.032    0.300  0.072  0.149   -0.001  0.011 -0.015
 H         -0.207 -0.176  0.174   -0.202  0.189 -0.121   -0.005  0.017 -0.014
 H          0.166 -0.049  0.366   -0.004 -0.130 -0.067   -0.026  0.888  0.437
 TransDip   0.042  0.037  0.051   -0.093  0.047 -0.066    0.116  0.368  0.197

 Mode:                10                     11                     12
 Frequency:       787.81                 908.44                1105.51
 Force Cnst:      0.4080                 0.9935                 2.4172
 Red. Mass:       1.1157                 2.0433                 3.3568
 IR Active:          YES                    YES                    YES
 IR Intens:        1.676                  6.446                115.767
 Raman Active:       YES                    YES                    YES
               X      Y      Z        X      Y      Z        X      Y      Z
 C         -0.001  0.000 -0.000    0.000 -0.000 -0.000    0.267  0.064 -0.147
 O          0.000 -0.003  0.000    0.000 -0.000 -0.000   -0.216 -0.083  0.177
 C          0.035 -0.005 -0.063   -0.030  0.236 -0.027   -0.015 -0.005 -0.010
 C          0.029 -0.000 -0.054    0.091 -0.099  0.053    0.020 -0.009  0.014
 O         -0.013  0.002  0.023   -0.003 -0.108  0.002   -0.002  0.001  0.002
 H          0.002  0.006 -0.004    0.000  0.001  0.000    0.460  0.264 -0.503
 H         -0.004  0.001 -0.000    0.001  0.000 -0.000   -0.118  0.118 -0.135
 H         -0.009 -0.000  0.002    0.001 -0.000 -0.001   -0.176  0.021 -0.101
 H         -0.141  0.011  0.242    0.049 -0.223  0.050   -0.040  0.098 -0.017
 H         -0.320  0.379 -0.044   -0.405  0.342 -0.291    0.009  0.002  0.018
 H          0.212 -0.395  0.282   -0.438  0.315 -0.195    0.005  0.003 -0.010
 H         -0.304  0.027  0.535    0.113 -0.370  0.098    0.031  0.005 -0.012
 H          0.008  0.052  0.008   -0.002  0.020  0.012    0.066  0.191 -0.376
 TransDip  -0.009  0.019  0.036    0.030 -0.071  0.025    0.254  0.119 -0.200

 Mode:                13                     14                     15
 Frequency:      1127.38                1150.69                1159.12
 Force Cnst:      1.0395                 1.3939                 1.6167
 Red. Mass:       1.3881                 1.7868                 2.0423
 IR Active:          YES                    YES                    YES
 IR Intens:        0.674                  1.088                 25.336
 Raman Active:       YES                    YES                    YES
               X      Y      Z        X      Y      Z        X      Y      Z
 C         -0.019 -0.074  0.136   -0.001  0.001  0.001   -0.017  0.005 -0.009
 O          0.040  0.036 -0.065    0.001  0.000  0.000    0.012  0.002  0.000
 C         -0.013 -0.002 -0.009   -0.094 -0.001  0.105   -0.153 -0.016 -0.115
 C          0.014 -0.008  0.010    0.137 -0.020 -0.170    0.164 -0.076  0.143
 O         -0.005  0.002  0.000   -0.029  0.006  0.037   -0.030  0.030 -0.029
 H          0.283  0.209 -0.395   -0.003 -0.006  0.002   -0.071 -0.046  0.087
 H         -0.415  0.020  0.094    0.001 -0.004  0.002    0.064 -0.009 -0.006
 H         -0.460 -0.105  0.101    0.006  0.000 -0.006    0.063  0.012  0.002
 H         -0.031  0.064 -0.012    0.100  0.117 -0.301   -0.339  0.701 -0.156
 H          0.015  0.001  0.020    0.191 -0.350  0.037    0.112  0.096  0.228
 H          0.011  0.002 -0.005   -0.038  0.374 -0.173    0.301 -0.046  0.045
 H          0.027 -0.005 -0.012   -0.309  0.016  0.623    0.260 -0.086 -0.003
 H          0.228  0.222 -0.407   -0.001 -0.011 -0.002   -0.022 -0.086  0.033
 TransDip  -0.006 -0.014  0.021    0.030 -0.014 -0.004    0.104 -0.099  0.074

 Mode:                16                     17                     18
 Frequency:      1187.89                1391.73                1428.99
 Force Cnst:      1.0626                 1.4056                 1.4785
 Red. Mass:       1.2781                 1.2317                 1.2288
 IR Active:          YES                    YES                    YES
 IR Intens:        0.890                 27.166                 12.332
 Raman Active:       YES                    YES                    YES
               X      Y      Z        X      Y      Z        X      Y      Z
 C         -0.002 -0.123 -0.065   -0.006  0.003 -0.004   -0.004  0.001 -0.002
 O          0.003  0.057  0.025    0.005 -0.001  0.003    0.003 -0.001  0.003
 C          0.001 -0.000  0.002    0.077 -0.107  0.044   -0.001  0.071 -0.003
 C         -0.000  0.000 -0.002   -0.001 -0.006  0.002    0.067 -0.044  0.040
 O          0.000 -0.000  0.000   -0.017 -0.017 -0.009   -0.050 -0.043 -0.027
 H         -0.036  0.241  0.170   -0.023 -0.018  0.022   -0.009 -0.001  0.008
 H          0.408  0.386 -0.365    0.008 -0.013  0.005    0.009 -0.003 -0.001
 H         -0.376 -0.044  0.543    0.004  0.005  0.009    0.013  0.003  0.002
 H          0.003 -0.003  0.000   -0.038  0.397 -0.017    0.033 -0.117  0.033
 H         -0.000 -0.002 -0.001   -0.397  0.417  0.037    0.099 -0.216 -0.162
 H         -0.004  0.002 -0.002   -0.164  0.390 -0.369   -0.108 -0.201  0.166
 H         -0.004  0.001  0.004   -0.057  0.402 -0.053   -0.040  0.893 -0.057
 H         -0.015 -0.021  0.032    0.023  0.002 -0.044    0.013  0.014 -0.026
 TransDip  -0.011 -0.028 -0.002   -0.014  0.164 -0.028    0.066 -0.083  0.038

 Mode:                19                     20                     21
 Frequency:      1439.09                1467.69                1481.95
 Force Cnst:      1.4726                 1.3557                 1.3666
 Red. Mass:       1.2068                 1.0681                 1.0562
 IR Active:          YES                    YES                    YES
 IR Intens:       23.277                 21.928                 11.578
 Raman Active:       YES                    YES                    YES
               X      Y      Z        X      Y      Z        X      Y      Z
 C          0.083 -0.025  0.057    0.018  0.002  0.002    0.030  0.007 -0.005
 O         -0.030  0.028 -0.059   -0.000  0.005 -0.008   -0.001  0.004 -0.009
 C         -0.007 -0.002  0.003    0.045 -0.007  0.031    0.025 -0.002 -0.043
 C          0.004 -0.002  0.008   -0.009 -0.009 -0.002    0.014 -0.001 -0.024
 O         -0.004 -0.005 -0.007    0.013  0.033  0.006   -0.000  0.002  0.003
 H          0.213  0.075 -0.174   -0.007 -0.044  0.030   -0.035 -0.079  0.089
 H         -0.171  0.170 -0.040   -0.057  0.003  0.007   -0.111 -0.016  0.018
 H         -0.178 -0.083 -0.163   -0.086 -0.011 -0.011   -0.148 -0.008  0.009
 H          0.054 -0.048 -0.078   -0.038  0.501 -0.104   -0.353  0.044  0.605
 H         -0.052  0.078  0.025   -0.189 -0.334 -0.476    0.370 -0.061  0.258
 H          0.123  0.053 -0.002   -0.429 -0.325  0.125   -0.439  0.035 -0.178
 H         -0.005  0.084 -0.003    0.015 -0.163  0.008   -0.039 -0.011  0.074
 H         -0.413 -0.341  0.667   -0.049 -0.064  0.073   -0.051 -0.044  0.091
 TransDip  -0.109 -0.063  0.090   -0.082 -0.113 -0.054   -0.060 -0.014  0.090

 Mode:                22                     23                     24
 Frequency:      1488.15                1499.83                1522.18
 Force Cnst:      1.4599                 1.3992                 1.4327
 Red. Mass:       1.1188                 1.0557                 1.0495
 IR Active:          YES                    YES                    YES
 IR Intens:        9.681                  3.908                  4.088
 Raman Active:       YES                    YES                    YES
               X      Y      Z        X      Y      Z        X      Y      Z
 C         -0.076 -0.048  0.039   -0.036  0.038  0.039    0.007  0.020 -0.049
 O         -0.009 -0.005  0.001   -0.004  0.008  0.004   -0.010  0.009 -0.022
 C          0.013 -0.003 -0.006    0.002 -0.000 -0.002   -0.001  0.000  0.000
 C          0.002 -0.003 -0.006    0.000 -0.000 -0.001    0.001  0.001  0.001
 O          0.001  0.006  0.001    0.000  0.001 -0.000   -0.000 -0.001 -0.001
 H          0.235  0.506 -0.352    0.120 -0.481 -0.507    0.114  0.147 -0.177
 H          0.237  0.150 -0.086    0.646 -0.072  0.030   -0.012 -0.584  0.314
 H          0.627  0.006 -0.080   -0.246 -0.019 -0.070    0.061  0.128  0.655
 H         -0.093  0.081  0.134   -0.021  0.009  0.034    0.006  0.001 -0.009
 H          0.061 -0.045  0.009    0.018 -0.008  0.007   -0.006  0.001 -0.004
 H         -0.159 -0.023 -0.035   -0.032 -0.004 -0.007    0.007 -0.001  0.003
 H         -0.008 -0.021  0.019   -0.003 -0.003  0.005   -0.000  0.005  0.002
 H         -0.035 -0.022  0.036   -0.015  0.003  0.020   -0.101 -0.081  0.154
 TransDip  -0.075 -0.037  0.055   -0.020 -0.060 -0.001    0.055  0.002  0.035

 Mode:                25                     26                     27
 Frequency:      1836.05                2942.67                3006.56
 Force Cnst:     18.8172                 5.5339                 5.5251
 Red. Mass:       9.4740                 1.0847                 1.0374
 IR Active:          YES                    YES                    YES
 IR Intens:      223.668                108.900                 67.726
 Raman Active:       YES                    YES                    YES
               X      Y      Z        X      Y      Z        X      Y      Z
 C         -0.001 -0.002  0.004   -0.000 -0.000  0.000    0.011  0.009 -0.050
 O         -0.003  0.001 -0.002    0.001 -0.000  0.000    0.001  0.001 -0.002
 C          0.002 -0.059  0.003    0.003  0.002  0.002   -0.001  0.001 -0.000
 C          0.165  0.668  0.071   -0.072 -0.010 -0.040   -0.001 -0.000 -0.001
 O         -0.136 -0.434 -0.063   -0.000 -0.002 -0.000    0.000  0.000  0.000
 H          0.004  0.008 -0.012    0.006 -0.001  0.003   -0.259  0.052 -0.128
 H          0.001  0.016 -0.003   -0.001 -0.005 -0.009    0.044  0.384  0.664
 H          0.003 -0.005 -0.012   -0.001  0.010 -0.001    0.045 -0.558  0.080
 H         -0.054  0.272 -0.036   -0.008 -0.004 -0.004    0.009  0.001  0.004
 H          0.042 -0.167 -0.067   -0.031 -0.018  0.026   -0.004 -0.003  0.004
 H         -0.043 -0.160  0.074    0.007 -0.020 -0.040    0.003 -0.005 -0.008
 H          0.247 -0.274  0.152    0.858  0.154  0.478    0.012  0.003  0.007
 H          0.022 -0.035  0.006   -0.008  0.005 -0.003    0.016 -0.002  0.003
 TransDip   0.135  0.458  0.042   -0.296 -0.050 -0.148    0.140  0.071 -0.212

 Mode:                28                     29                     30
 Frequency:      3056.97                3060.17                3128.31
 Force Cnst:      5.7097                 6.0824                 6.3323
 Red. Mass:       1.0370                 1.1024                 1.0982
 IR Active:          YES                    YES                    YES
 IR Intens:       11.096                 62.445                  3.870
 Raman Active:       YES                    YES                    YES
               X      Y      Z        X      Y      Z        X      Y      Z
 C         -0.000 -0.008 -0.004   -0.003 -0.086 -0.035    0.002 -0.001  0.001
 O         -0.000 -0.000 -0.000   -0.000  0.000  0.000   -0.000  0.000  0.000
 C          0.016 -0.047  0.009   -0.002  0.005 -0.000    0.044 -0.002 -0.079
 C         -0.005  0.000 -0.003    0.001 -0.000  0.000    0.001 -0.000 -0.001
 O          0.000  0.000  0.000   -0.000 -0.000 -0.000    0.000 -0.000 -0.000
 H          0.005 -0.003  0.001    0.074 -0.039  0.024   -0.020  0.004 -0.009
 H          0.005  0.033  0.061    0.044  0.281  0.521    0.000 -0.000  0.000
 H         -0.007  0.067 -0.012   -0.077  0.771 -0.139   -0.000  0.007 -0.001
 H         -0.405 -0.126 -0.228    0.040  0.013  0.022    0.024  0.004 -0.005
 H          0.355  0.320 -0.370   -0.036 -0.032  0.037   -0.414 -0.394  0.419
 H         -0.133  0.353  0.497    0.015 -0.039 -0.055   -0.139  0.413  0.546
 H          0.039  0.003  0.022   -0.006 -0.001 -0.003   -0.000  0.000  0.001
 H          0.002  0.001  0.001   -0.001  0.003  0.001    0.000 -0.000 -0.000
 TransDip  -0.063 -0.076 -0.040   -0.024 -0.236 -0.089    0.036 -0.001 -0.052

 Mode:                31                     32                     33
 Frequency:      3131.31                3173.17                3740.90
 Force Cnst:      6.3461                 6.5637                 8.8007
 Red. Mass:       1.0985                 1.1064                 1.0674
 IR Active:          YES                    YES                    YES
 IR Intens:       39.717                  0.846                389.539
 Raman Active:       YES                    YES                    YES
               X      Y      Z        X      Y      Z        X      Y      Z
 C         -0.073  0.026 -0.048   -0.000 -0.000  0.000   -0.002  0.000 -0.001
 O          0.001 -0.001  0.001    0.000 -0.000  0.000   -0.057  0.010 -0.024
 C          0.001  0.000 -0.002   -0.072 -0.048 -0.038   -0.000  0.000 -0.000
 C          0.000  0.000  0.000   -0.003 -0.002 -0.002   -0.000 -0.003 -0.000
 O         -0.000 -0.000  0.000    0.000  0.001  0.000    0.000  0.001  0.000
 H          0.846 -0.177  0.403    0.002 -0.001  0.001    0.019 -0.002  0.005
 H         -0.001  0.097  0.142    0.001 -0.000 -0.001    0.003 -0.002 -0.010
 H          0.009 -0.225  0.023    0.000  0.004 -0.001    0.003  0.006 -0.004
 H          0.000  0.000 -0.000    0.739  0.216  0.416    0.005  0.003  0.002
 H         -0.010 -0.010  0.010    0.198  0.181 -0.215   -0.001  0.001 -0.001
 H         -0.003  0.009  0.012   -0.077  0.182  0.258   -0.001  0.001 -0.000
 H         -0.002 -0.001 -0.001    0.034  0.002  0.019    0.007  0.006  0.003
 H         -0.011  0.006 -0.013   -0.005  0.002 -0.002    0.902 -0.176  0.387
 TransDip  -0.173  0.037 -0.098    0.002  0.028 -0.008    0.593  0.149  0.160

 STANDARD THERMODYNAMIC QUANTITIES AT   298.15 K  AND     1.00 ATM

   This Molecule has  0 Imaginary Frequencies
   Zero point vibrational energy:       68.883 kcal/mol

   Atom    1 Element C  Has Mass   12.00000
   Atom    2 Element O  Has Mass   15.99491
   Atom    3 Element C  Has Mass   12.00000
   Atom    4 Element C  Has Mass   12.00000
   Atom    5 Element O  Has Mass   15.99491
   Atom    6 Element H  Has Mass    1.00783
   Atom    7 Element H  Has Mass    1.00783
   Atom    8 Element H  Has Mass    1.00783
   Atom    9 Element H  Has Mass    1.00783
   Atom   10 Element H  Has Mass    1.00783
   Atom   11 Element H  Has Mass    1.00783
   Atom   12 Element H  Has Mass    1.00783
   Atom   13 Element H  Has Mass    1.00783
   Molecular Mass:    76.052460 amu
   Principal axes and moments of inertia in amu*Bohr^2:
                             1           2           3
    Eigenvalues --      218.84195   890.26289  1013.27250
          X               0.86286    -0.41050    -0.29490
          Y               0.46121     0.87814     0.12711
          Z               0.20678    -0.24568     0.94704
   Rotational Symmetry Number is   1
   The Molecule is an Asymmetric Top
   Translational Enthalpy:        0.889 kcal/mol
   Rotational Enthalpy:           0.889 kcal/mol
   Vibrational Enthalpy:         72.426 kcal/mol
   gas constant (RT):             0.592 kcal/mol
   Translational Entropy:        38.902  cal/mol.K
   Rotational Entropy:           26.781  cal/mol.K
   Vibrational Entropy:          26.066  cal/mol.K

   Total Enthalpy:               74.796 kcal/mol
   Total Entropy:                91.749  cal/mol.K
Archival summary:
1\1\nid00477\FREQ\ProcedureUnspecified\BasisUnspecified\238\cgrambow\TueFeb1223:45:542019TueFeb1223:45:542019\0\\#,FREQ,ProcedureUnspecified,BasisUnspecified,\\0,1\O\C,1,1.2053\H,2,1.1081,1,119.131\C,2,1.4939,1,124.975,3,179.924,0\H,4,1.08906,2,111.289,1,0.486756,0\H,4,1.09325,2,109.032,1,122.518,0\H,4,1.09343,2,108.964,1,-121.507,0\H,1,1.94967,2,115.349,3,179.482,0\O,8,0.966716,1,162.779,2,20.3518,0\C,9,1.40772,8,108.315,1,94.7444,0\H,10,1.09044,9,107.661,8,-179.833,0\H,10,1.09613,9,112.127,8,61.3194,0\H,10,1.09736,9,112.285,8,-60.9226,0\\\@

 Total job time:  1201.59s(wall), 4049.62s(cpu) 
 Tue Feb 12 23:45:54 2019

        *************************************************************
        *                                                           *
        *  Thank you very much for using Q-Chem.  Have a nice day.  *
        *                                                           *
        *************************************************************


