
Running Job 1 of 3 ts_optfreq0251.in
qchem ts_optfreq0251.in_61830.0 /tmp/qchem61830/ 1
/global/common/cori/software/qchem/5.1/exe/qcprog.exe ts_optfreq0251.in_61830.0 /tmp/qchem61830/
Check license passed

                  Welcome to Q-Chem
     A Quantum Leap Into The Future Of Chemistry


 Q-Chem 5.1, Q-Chem, Inc., Pleasanton, CA (2018)

 Yihan Shao,  Zhengting Gan,  E. Epifanovsky,  A. T. B. Gilbert,  M. Wormit,  
 J. Kussmann,  A. W. Lange,  A. Behn,  Jia Deng,  Xintian Feng,  D. Ghosh,  
 M. Goldey,  P. R. Horn,  L. D. Jacobson,  I. Kaliman,  T. Kus,  A. Landau,  
 Jie Liu,  E. I. Proynov,  R. M. Richard,  R. P. Steele,  E. J. Sundstrom,  
 H. L. Woodcock III,  P. M. Zimmerman,  D. Zuev,  B. Albrecht,  E. Alguire,  
 S. A. Baeppler,  D. Barton,  Z. Benda,  Y. A. Bernard,  E. J. Berquist,  
 K. B. Bravaya,  H. Burton,  D. Casanova,  Chun-Min Chang,  Yunqing Chen,  
 A. Chien,  K. D. Closser,  M. P. Coons,  S. Coriani,  S. Dasgupta,  
 A. L. Dempwolff,  M. Diedenhofen,  Hainam Do,  R. G. Edgar,  Po-Tung Fang,  
 S. Faraji,  S. Fatehi,  Qingguo Feng,  K. D. Fenk,  J. Fosso-Tande,  
 Qinghui Ge,  A. Ghysels,  G. Gidofalvi,  J. Gomes,  J. Gonthier,  A. Gunina,  
 D. Hait,  M. W. D. Hanson-Heine,  P. H. P. Harbach,  A. W. Hauser,  
 J. E. Herr,  E. G. Hohenstein,  Z. C. Holden,  Kerwin Hui,  B. C. Huynh,  
 T.-C. Jagau,  Hyunjun Ji,  B. Kaduk,  K. Khistyaev,  Jaehoon Kim,  
 P. Klunzinger,  K. Koh,  D. Kosenkov,  L. Koulias,  T. Kowalczyk,  
 C. M. Krauter,  A. Kunitsa,  Ka Un Lao,  A. Laurent,  K. V. Lawler,  
 Joonho Lee,  D. Lefrancois,  S. Lehtola,  D. S. Levine,  Yi-Pei Li,  
 You-Sheng Lin,  Fenglai Liu,  E. Livshits,  A. Luenser,  P. Manohar,  
 E. Mansoor,  S. F. Manzer,  Shan-Ping Mao,  Yuezhi Mao,  N. Mardirossian,  
 A. V. Marenich,  T. Markovich,  L. A. Martinez-Martinez,  S. A. Maurer,  
 N. J. Mayhall,  S. C. McKenzie,  J.-M. Mewes,  A. F. Morrison,  
 J. W. Mullinax,  K. Nanda,  T. S. Nguyen-Beck,  R. Olivares-Amaya,  
 J. A. Parkhill,  T. M. Perrine,  F. Plasser,  P. Pokhilko,  S. Prager,  
 A. Prociuk,  E. Ramos,  D. R. Rehn,  F. Rob,  M. Schneider,  N. Sergueev,  
 S. M. Sharada,  S. Sharma,  D. W. Small,  T. Stauch,  T. Stein,  
 Yu-Chuan Su,  A. J. W. Thom,  A. Tkatchenko,  T. Tsuchimochi,  N. M. Tubman,  
 L. Vogt,  M. L. Vidal,  O. Vydrov,  M. A. Watson,  J. Wenzel,  
 M. de Wergifosse,  T. A. Wesolowski,  A. White,  J. Witte,  A. Yamada,  
 Jun Yang,  K. Yao,  S. Yeganeh,  S. R. Yost,  Zhi-Qiang You,  A. Zech,  
 Igor Ying Zhang,  Xing Zhang,  Yan Zhao,  Ying Zhu,  B. R. Brooks,  
 G. K. L. Chan,  C. J. Cramer,  M. S. Gordon,  W. J. Hehre,  A. Klamt,  
 M. W. Schmidt,  C. D. Sherrill,  D. G. Truhlar,  A. Aspuru-Guzik,  R. Baer,  
 A. T. Bell,  N. A. Besley,  Jeng-Da Chai,  R. A. DiStasio Jr.,  A. Dreuw,  
 B. D. Dunietz,  T. R. Furlani,  Chao-Ping Hsu,  Yousung Jung,  Jing Kong,  
 D. S. Lambrecht,  WanZhen Liang,  C. Ochsenfeld,  V. A. Rassolov,  
 L. V. Slipchenko,  J. E. Subotnik,  T. Van Voorhis,  J. M. Herbert,  
 A. I. Krylov,  P. M. W. Gill,  M. Head-Gordon

 Contributors to earlier versions of Q-Chem not listed above: 
 R. D. Adamson,  B. Austin,  J. Baker,  G. J. O. Beran,  K. Brandhorst,  
 S. T. Brown,  E. F. C. Byrd,  A. K. Chakraborty,  C.-L. Cheng,  
 Siu Hung Chien,  D. M. Chipman,  D. L. Crittenden,  H. Dachsel,  
 R. J. Doerksen,  A. D. Dutoi,  L. Fusti-Molnar,  W. A. Goddard III,  
 A. Golubeva-Zadorozhnaya,  S. R. Gwaltney,  G. Hawkins,  A. Heyden,  
 S. Hirata,  G. Kedziora,  F. J. Keil,  C. Kelley,  Jihan Kim,  R. A. King,  
 R. Z. Khaliullin,  P. P. Korambath,  W. Kurlancheek,  A. M. Lee,  M. S. Lee,  
 S. V. Levchenko,  Ching Yeh Lin,  D. Liotard,  R. C. Lochan,  I. Lotan,  
 P. E. Maslen,  N. Nair,  D. P. O'Neill,  D. Neuhauser,  E. Neuscamman,  
 C. M. Oana,  R. Olson,  B. Peters,  R. Peverati,  P. A. Pieniazek,  
 Y. M. Rhee,  J. Ritchie,  M. A. Rohrdanz,  E. Rosta,  N. J. Russ,  
 H. F. Schaefer III,  N. E. Schultz,  N. Shenvi,  A. C. Simmonett,  A. Sodt,  
 D. Stuck,  K. S. Thanthiriwatte,  V. Vanovschi,  Tao Wang,  A. Warshel,  
 C. F. Williams,  Q. Wu,  X. Xu,  W. Zhang

 Please cite Q-Chem as follows:
 Y. Shao et al., Mol. Phys. 113, 184-215 (2015)
 DOI: 10.1080/00268976.2014.952696

 Q-Chem 5.1.0 for Intel X86 EM64T Linux

 Parts of Q-Chem use Armadillo 8.300.2 (Tropical Shenanigans).
 http://arma.sourceforge.net/

 Q-Chem begins on Tue Feb 12 23:30:26 2019  

Host: cori07
0

     Scratch files written to /tmp/qchem61830//
 Jun2518 |scratch|qcdevops|jenkins|workspace|build_RNUM -1
Processing $rem in /global/common/cori/software/qchem/5.1/config/preferences.
 MEM_TOTAL  96000 

Checking the input file for inconsistencies... 	...done.

--------------------------------------------------------------
User input:
--------------------------------------------------------------
$molecule
0 1
C   1.7204738732   0.8658149733   0.2848455539
O   0.4320353519   0.5112794118   0.7865944814
C  -0.4435431016  -1.0758148161  -0.2719464001
C  -1.6814764916  -0.3282449511  -0.4260210607
O  -1.5877353867   0.9235852211  -0.7638854176
H   1.9224420851   1.9286769712   0.4905931028
H   2.4668490972   0.2516790342   0.8032040244
H   1.8093528057   0.7010799898  -0.8026128470
H   0.3246488139  -0.9248355878  -1.0281744479
H  -0.3983594246  -1.9994537791   0.3124691618
H  -1.7666522713  -1.2017434560  -1.3042099927
H  -2.5106594604  -0.6588785775   0.2393057666
H  -0.2839468907   0.9995905661   0.2074570751
$end

$rem
JOBTYPE                   FREQ
METHOD                    wB97X-D3
BASIS                     def2-TZVP
UNRESTRICTED              TRUE
SCF_ALGORITHM             DIIS
MAX_SCF_CYCLES            100
SCF_CONVERGENCE           8
SYM_IGNORE                TRUE
SYMMETRY                  FALSE
WAVEFUNCTION_ANALYSIS     FALSE
$end

--------------------------------------------------------------
 Adding empirical dispersion correction 
 ----------------------------------------------------------------
 Doing -D3(0) with
 s6  =   1.00000
 s8  =   1.00000
 rs6 =   1.28100
 rs8 =   1.09400
 -D3 energy without 3body term =     -0.0027510380 hartrees
 ----------------------------------------------------------------
             Standard Nuclear Orientation (Angstroms)
    I     Atom           X                Y                Z
 ----------------------------------------------------------------
    1      C       1.7204738732     0.8658149733     0.2848455539
    2      O       0.4320353519     0.5112794118     0.7865944814
    3      C      -0.4435431016    -1.0758148161    -0.2719464001
    4      C      -1.6814764916    -0.3282449511    -0.4260210607
    5      O      -1.5877353867     0.9235852211    -0.7638854176
    6      H       1.9224420851     1.9286769712     0.4905931028
    7      H       2.4668490972     0.2516790342     0.8032040244
    8      H       1.8093528057     0.7010799898    -0.8026128470
    9      H       0.3246488139    -0.9248355878    -1.0281744479
   10      H      -0.3983594246    -1.9994537791     0.3124691618
   11      H      -1.7666522713    -1.2017434560    -1.3042099927
   12      H      -2.5106594604    -0.6588785775     0.2393057666
   13      H      -0.2839468907     0.9995905661     0.2074570751
 ----------------------------------------------------------------
 Nuclear Repulsion Energy =   188.8396716251 hartrees
 There are       21 alpha and       21 beta electrons
 Requested basis set is def2-TZVP
 There are 87 shells and 203 basis functions

 Total QAlloc Memory Limit  96000 MB
 Mega-Array Size       188 MB
 MEM_STATIC part       192 MB

                       Distance Matrix (Angstroms)
             C (  1)   O (  2)   C (  3)   C (  4)   O (  5)   H (  6)
   O (  2)  1.427418
   C (  3)  2.960222  2.099051
   C (  4)  3.674830  2.577241  1.454331
   O (  5)  3.470940  2.579430  2.355585  1.300007
   H (  6)  1.101271  2.077967  3.899529  4.349955  3.860735
   H (  7)  1.096784  2.051374  3.374696  4.365308  4.398509  1.790650
   H (  8)  1.103450  2.111542  2.917962  3.658855  3.404588  1.786663
   H (  9)  2.622743  2.316753  1.088483  2.177854  2.672774  3.605847
   H ( 10)  3.563703  2.686658  1.093934  2.232643  3.334263  4.565967
   H ( 11)  4.354302  3.484270  1.682868  1.241560  2.200224  5.160452
   H ( 12)  4.497694  3.213759  2.169835  1.113339  2.088629  5.139161
   H ( 13)  2.010370  1.042343  2.136026  2.029170  1.627620  2.410709
             H (  7)   H (  8)   H (  9)   H ( 10)   H ( 11)   H ( 12)
   H (  8)  1.792459
   H (  9)  3.054039  2.213329
   H ( 10)  3.676661  3.662005  1.864100
   H ( 11)  4.947339  4.081685  2.127537  2.263232
   H ( 12)  5.091433  4.647320  3.117084  2.502860  1.797412
   H ( 13)  2.912244  2.343342  2.366557  3.003063  3.054411  2.776650

 
 A cutoff of  1.0D-11 yielded   3590 shell pairs
 There are     20014 function pairs (     25405 Cartesian)
 
 -------------------------------------------------------
 OpenMP Integral Computing Module                       
 Release: version 1.0, May 2013, Q-Chem Inc. Pittsburgh 
 -------------------------------------------------------
 Integral Job Info:
 Integral job number is                      11
 Integral operator is                         1
 short-range coefficients              19572800
 long-range coefficients              100000000
 Omega coefficients                         250
 if combine SR and LR in K                    1
 Integral screening is                        0
 Integral computing path is                   2
 max size of driver memory is            800000
 size of driver memory is                776718
 size of scratch memory is              4473992
 max col of scratch BK array              10000
 max len of scratch array in speh3          662
 max len of scratch index in speh4           32
 max int batch size is                      520
 min int batch size is                       52
 fixed nKL is                                52
 max L of basis functions is                  3
 order of int derivative is                   0
 number of shells is                         87
 number of basis is                         228
 number of cartesian basis is               228
 number of contracted shell pairs          3590
 number of primitive shell pairs           8115
 maxK2 (contraction) of shell pair           36
 max number of K2 of shell pair               1
 max number of CS2 of shell pair            569
 max number of PS2 of shell pair           1026
 mem total for path MDJ                  565364
 -------------------------------------------------------
 Smallest overlap matrix eigenvalue = 4.06E-04
 Guess from superposition of atomic densities
 Warning:  Energy on first SCF cycle will be non-variational
 SAD guess density has 42.000000 electrons

 -----------------------------------------------------------------------
  General SCF calculation program by
  Eric Jon Sundstrom, Paul Horn, Yuezhi Mao, Dmitri Zuev, Alec White,
  David Stuck, Shaama M.S., Shane Yost, Joonho Lee, David Small,
  Daniel Levine, Susi Lehtola, Hugh Burton, Evgeny Epifanovsky
 -----------------------------------------------------------------------
 Exchange:     0.1957 Hartree-Fock + 1.0000 wB97X-D3 + LR-HF
 Correlation:  1.0000 wB97X-D3
 Using SG-2 standard quadrature grid
 Dispersion:   Grimme D3
 using 16 threads for integral computing
 -------------------------------------------------------
 OpenMP Integral computing Module                
 Release: version 1.0, May 2013, Q-Chem Inc. Pittsburgh 
 -------------------------------------------------------
 using 16 threads for integral computing
 -------------------------------------------------------
 OpenMP Integral computing Module                
 Release: version 1.0, May 2013, Q-Chem Inc. Pittsburgh 
 -------------------------------------------------------
 -------------------------------------------------------
 OpenMP BLAS3 based DFT computing Module                
 Release: version 1.0, May 2013, Q-Chem Inc. Pittsburgh 
 -------------------------------------------------------
 A unrestricted SCF calculation will be
 performed using DIIS
 SCF converges when DIIS error is below 1.0e-08
 ---------------------------------------
  Cycle       Energy         DIIS error
 ---------------------------------------
    1    -270.2333159510      1.78e-02  
    2    -269.3196611654      2.91e-03  
    3    -269.1929654330      4.24e-03  
    4    -269.4642641646      3.41e-04  
    5    -269.4655141789      2.25e-04  
    6    -269.4662421596      5.43e-05  
    7    -269.4662949496      1.39e-05  
    8    -269.4663006795      3.73e-06  
    9    -269.4663019127      1.80e-06  
   10    -269.4663022347      7.99e-07  
   11    -269.4663023006      2.81e-07  
   12    -269.4663023131      1.06e-07  
   13    -269.4663023149      3.72e-08  
   14    -269.4663023151      1.71e-08  
   15    -269.4663023151      6.81e-09  Convergence criterion met
 ---------------------------------------
 SCF time:   CPU 452.52s  wall 32.00s 
<S^2> =          0.000000000
 SCF   energy in the final basis set =     -269.4663023151
 Total energy in the final basis set =     -269.4663023151
 No wavefunction analysis requested
 Calculating MO derivatives via CPSCF
 D1JvT checksum  = 1274832 35429.6351458360
 D1KAT checksum  = 2626572 3366.7297440796
 D1JvT checksum  = 1274832 23337.1741550896
 D1KAT checksum  = 2626572 1507.3921183494
   1         3          39      0.174711    0.027573
   2         3          39      0.040916    0.007860
   3         3          39      0.006443    0.001164
   4         3          39      0.000960    0.000184
   5        16          26      0.000107    0.000022
   6        39           3      0.000007    0.000002
   7        42           0      0.000000    0.000000    Roots Converged
 Time for AOints: 196.6 s (CPU) 13.4 s (wall)
 ------------------------------------------------------------------------------
                     AOints        : Timing summary (seconds)
 ------------------------------------------------------------------------------
     job step          cpu (% of tot)      sys (% of tot)     wall (% of tot)
 ------------------------------------------------------------------------------
  cpscf_lag         0.1594E+04 (41.8)   0.3541E-02 (57.1)   0.3716E+03 (39.9)
  iterzp            0.2025E+04 (53.1)   0.2220E-02 (35.8)   0.5459E+03 (58.6)
  make_fx           0.0000E+00 ( 0.0)   0.0000E+00 ( 0.0)   0.0000E+00 ( 0.0)
  AOints            0.1966E+03 ( 5.2)   0.4380E-03 ( 7.1)   0.1340E+02 ( 1.4)
 ------------------------------------------------------------------------------
   Grand Totals     0.3816E+04          0.6205E-02          0.9311E+03
 ------------------------------------------------------------------------------
 Calculating analytic Hessian of the SCF energy
 Polarizability Matrix (a.u.)
            1           2           3
    1 -65.5395854  -5.8525875  -8.5496268
    2  -5.8525875 -58.0729574  -3.4962090
    3  -8.5496268  -3.4962090 -45.1052832
 Running MAKENN_D3_FD2ND
 
 Direct stationary perturbation theory relativistic correction:
 
 rels  =       0.086955897698
 relv  =      -0.378567898393
 rel2e =       0.000000000000
 E_rel =      -0.291612000696
 
 Hessian of the SCF Energy
            1           2           3           4           5           6
    1   0.4887766  -0.0373302   0.0490407  -0.1948545  -0.0151377   0.0321104
    2  -0.0373302   0.5692273   0.0004272  -0.0344852  -0.0905910   0.0214151
    3   0.0490407   0.0004272   0.5538577   0.0558602   0.0214048  -0.0987202
    4  -0.1948545  -0.0344852   0.0558602   0.4520539  -0.0185445   0.0297831
    5  -0.0151377  -0.0905910   0.0214048  -0.0185445   0.1595000  -0.0985635
    6   0.0321104   0.0214151  -0.0987202   0.0297831  -0.0985635   0.2438514
    7  -0.0156037  -0.0045755   0.0039530  -0.0082144   0.0387508   0.0143005
    8  -0.0140073   0.0024222   0.0067264   0.0184590   0.0306910   0.0106268
    9  -0.0104525   0.0080458   0.0075880   0.0115503   0.0272721  -0.0129320
   10   0.0023684  -0.0017726  -0.0028862  -0.0124852  -0.0170191  -0.0089211
   11   0.0047014  -0.0087091  -0.0032926  -0.0028765  -0.0500547   0.0000823
   12   0.0061177  -0.0033119  -0.0057666  -0.0242417  -0.0250441  -0.0110584
   13   0.0032591   0.0055887  -0.0022207  -0.0284466   0.0283996  -0.0224285
   14  -0.0018080   0.0031380  -0.0001167  -0.0108964   0.0295092  -0.0034137
   15   0.0021685   0.0047466  -0.0033596  -0.0217660   0.0119513  -0.0092141
   16  -0.0544328  -0.0275289  -0.0087935  -0.0200496  -0.0391267  -0.0011049
   17  -0.0323168  -0.2835477  -0.0494390  -0.0117724  -0.0032697   0.0020790
   18  -0.0098188  -0.0510481  -0.0635979   0.0081784   0.0153081   0.0037585
   19  -0.1531392   0.0929306  -0.0801781  -0.0362869   0.0152309  -0.0132384
   20   0.1004847  -0.1394344   0.0725427  -0.0095575   0.0096487  -0.0057904
   21  -0.0874849   0.0733256  -0.1160830   0.0134587  -0.0088005   0.0093481
   22  -0.0525346   0.0015945   0.0018822  -0.0156818  -0.0001085   0.0363655
   23   0.0012453  -0.0608057  -0.0394678  -0.0029097   0.0031605   0.0104958
   24   0.0060533  -0.0388004  -0.2833987   0.0141693   0.0020775  -0.0075912
   25   0.0036829   0.0004873  -0.0036453  -0.0018583  -0.0083029  -0.0069235
   26   0.0028414   0.0001391  -0.0036545  -0.0016789  -0.0089891  -0.0089783
   27   0.0014766   0.0000323  -0.0007186  -0.0008729  -0.0090449  -0.0080099
   28  -0.0002458  -0.0007852   0.0004231   0.0006213   0.0000669   0.0027272
   29  -0.0003518  -0.0003510   0.0001493   0.0008596   0.0007136   0.0012507
   30  -0.0001454  -0.0004379  -0.0002149   0.0017806  -0.0006537   0.0037688
   31   0.0051629  -0.0022641  -0.0030834  -0.0095627  -0.0199453  -0.0070303
   32  -0.0012244   0.0014803   0.0012263  -0.0011020   0.0123470  -0.0004044
   33   0.0016044  -0.0012291  -0.0011093  -0.0060202  -0.0022857  -0.0009449
   34  -0.0007152   0.0003302   0.0007173   0.0012675   0.0033244   0.0006341
   35   0.0000491   0.0001271  -0.0000979  -0.0016122   0.0011824  -0.0007773
   36  -0.0013025  -0.0000962   0.0007668   0.0014831   0.0034680   0.0020716
   37  -0.0317242   0.0078101  -0.0110693  -0.1265026   0.0324122  -0.0562742
   38  -0.0071457   0.0069050  -0.0064082   0.0761167  -0.0938479   0.0719779
   39   0.0106325  -0.0130689   0.0107562  -0.0833629   0.0629107  -0.1143277
            7           8           9          10          11          12
    1  -0.0156037  -0.0140073  -0.0104525   0.0023684   0.0047014   0.0061177
    2  -0.0045755   0.0024222   0.0080458  -0.0017726  -0.0087091  -0.0033119
    3   0.0039530   0.0067264   0.0075880  -0.0028862  -0.0032926  -0.0057666
    4  -0.0082144   0.0184590   0.0115503  -0.0124852  -0.0028765  -0.0242417
    5   0.0387508   0.0306910   0.0272721  -0.0170191  -0.0500547  -0.0250441
    6   0.0143005   0.0106268  -0.0129320  -0.0089211   0.0000823  -0.0110584
    7   0.4736147  -0.1361856  -0.2083974  -0.2052475   0.1475807   0.0653872
    8  -0.1361856   0.4656417  -0.2325645   0.0994680  -0.0693803   0.0492239
    9  -0.2083974  -0.2325645   0.3637977   0.0462557   0.0952608  -0.0140169
   10  -0.2052475   0.0994680   0.0462557   0.5389339  -0.0310287  -0.1200613
   11   0.1475807  -0.0693803   0.0952608  -0.0310287   0.5066680  -0.1618979
   12   0.0653872   0.0492239  -0.0140169  -0.1200613  -0.1618979   0.3401947
   13  -0.0115415   0.0157985  -0.0368439  -0.0854086   0.0045850   0.0289574
   14  -0.0081179  -0.0784786  -0.0162832  -0.0060497  -0.3298684   0.1256337
   15  -0.0202914   0.0073601  -0.0026463   0.0171649   0.0872773  -0.1064406
   16   0.0026621   0.0044404   0.0056490  -0.0010609  -0.0039392  -0.0025225
   17   0.0008757   0.0017678   0.0012287   0.0000399  -0.0009667  -0.0004975
   18  -0.0013606  -0.0016660  -0.0019381   0.0004372   0.0007876   0.0011249
   19   0.0007425   0.0012416   0.0007861  -0.0002335   0.0010289  -0.0006375
   20  -0.0003260  -0.0001477  -0.0004972   0.0000646   0.0004321   0.0001397
   21   0.0000169  -0.0000464   0.0000480  -0.0000253  -0.0000691  -0.0000841
   22   0.0009372   0.0021848   0.0025842  -0.0002282  -0.0010588  -0.0002066
   23  -0.0017215  -0.0003287   0.0006291   0.0002951   0.0014670   0.0005007
   24  -0.0029224  -0.0022801  -0.0016792   0.0005323   0.0001310   0.0012434
   25  -0.1889525  -0.0253099   0.1424572  -0.0215778  -0.0091368   0.0175491
   26  -0.0187819  -0.0542699   0.0428325   0.0052576   0.0039675  -0.0124641
   27   0.1560255   0.0419301  -0.1868507  -0.0121416  -0.0031946   0.0019874
   28  -0.0636020   0.0040418  -0.0065641   0.0128757   0.0257986  -0.0094512
   29   0.0112120  -0.2502308   0.1347291  -0.0085873  -0.0034834   0.0032812
   30  -0.0033817   0.1253552  -0.1326066   0.0031053   0.0049647   0.0018840
   31   0.0162270   0.0082499   0.0147971  -0.0408927  -0.0506371  -0.0445757
   32  -0.0319060  -0.0252871  -0.0378630   0.0068884   0.0043112  -0.0099078
   33  -0.0016513  -0.0118255  -0.0304691  -0.0163445  -0.0260537  -0.0878917
   34  -0.0245623  -0.0059742   0.0155714  -0.1717951  -0.0239586   0.0977770
   35   0.0080854   0.0038841  -0.0137824  -0.0383884  -0.0634199   0.0342367
   36  -0.0138334  -0.0068186  -0.0040301   0.1014414   0.0428200  -0.1186564
   37   0.0235405   0.0275931   0.0226069  -0.0152486  -0.0610587  -0.0140920
   38  -0.0048900  -0.0262838  -0.0090079  -0.0091679   0.0090367   0.0001074
   39   0.0121551   0.0139785   0.0157351  -0.0085568  -0.0368159  -0.0025198
           13          14          15          16          17          18
    1   0.0032591  -0.0018080   0.0021685  -0.0544328  -0.0323168  -0.0098188
    2   0.0055887   0.0031380   0.0047466  -0.0275289  -0.2835477  -0.0510481
    3  -0.0022207  -0.0001167  -0.0033596  -0.0087935  -0.0494390  -0.0635979
    4  -0.0284466  -0.0108964  -0.0217660  -0.0200496  -0.0117724   0.0081784
    5   0.0283996   0.0295092   0.0119513  -0.0391267  -0.0032697   0.0153081
    6  -0.0224285  -0.0034137  -0.0092141  -0.0011049   0.0020790   0.0037585
    7  -0.0115415  -0.0081179  -0.0202914   0.0026621   0.0008757  -0.0013606
    8   0.0157985  -0.0784786   0.0073601   0.0044404   0.0017678  -0.0016660
    9  -0.0368439  -0.0162832  -0.0026463   0.0056490   0.0012287  -0.0019381
   10  -0.0854086  -0.0060497   0.0171649  -0.0010609   0.0000399   0.0004372
   11   0.0045850  -0.3298684   0.0872773  -0.0039392  -0.0009667   0.0007876
   12   0.0289574   0.1256337  -0.1064406  -0.0025225  -0.0004975   0.0011249
   13   0.0795664  -0.0071960  -0.0052419   0.0008572  -0.0002538  -0.0001509
   14  -0.0071960   0.4751867  -0.1254836   0.0018047   0.0003724  -0.0000898
   15  -0.0052419  -0.1254836   0.0939760   0.0002525  -0.0002244  -0.0000976
   16   0.0008572   0.0018047   0.0002525   0.0666658   0.0446535   0.0040817
   17  -0.0002538   0.0003724  -0.0002244   0.0446535   0.3044497   0.0514134
   18  -0.0001509  -0.0000898  -0.0000976   0.0040817   0.0514134   0.0617090
   19  -0.0018189  -0.0009049  -0.0015709   0.0051389  -0.0020092   0.0022958
   20  -0.0003037  -0.0003086  -0.0003933   0.0197605  -0.0152647   0.0160050
   21   0.0004738  -0.0000124   0.0008257   0.0052578  -0.0048785   0.0041742
   22   0.0004427   0.0004858  -0.0006736   0.0018425   0.0005563  -0.0040812
   23  -0.0006700  -0.0010082   0.0000952   0.0003696  -0.0035161  -0.0310198
   24   0.0006093   0.0001320   0.0009405  -0.0012281  -0.0007341  -0.0058378
   25   0.0048238   0.0003157  -0.0021706  -0.0001204   0.0000926   0.0007318
   26  -0.0005348   0.0024656  -0.0005330  -0.0001346   0.0000386   0.0007978
   27   0.0015385   0.0007526  -0.0008175  -0.0004940   0.0001056   0.0004326
   28  -0.0063776   0.0014697   0.0005535  -0.0002365   0.0000119  -0.0002309
   29   0.0031339  -0.0031726   0.0025763  -0.0000413   0.0000857  -0.0000426
   30  -0.0023542  -0.0022168   0.0038746  -0.0002049   0.0000309   0.0000575
   31   0.0127678   0.0193644   0.0050227  -0.0018648  -0.0004815   0.0007822
   32  -0.0171232  -0.0539408  -0.0082571   0.0009893   0.0000190  -0.0002072
   33   0.0017957  -0.0061552   0.0173994  -0.0006529  -0.0002132   0.0003272
   34   0.0050501  -0.0172427   0.0035959   0.0002995  -0.0000090  -0.0001808
   35  -0.0265007  -0.0234849   0.0231723   0.0000141  -0.0000005   0.0000722
   36   0.0055591   0.0090369   0.0021830   0.0002474   0.0000338  -0.0001535
   37   0.0268260   0.0287754   0.0229564   0.0002991   0.0006129  -0.0006840
   38  -0.0049237  -0.0204098  -0.0022875  -0.0012613  -0.0001678  -0.0003106
   39   0.0303062   0.0182162   0.0033764  -0.0004879   0.0010953   0.0000410
           19          20          21          22          23          24
    1  -0.1531392   0.1004847  -0.0874849  -0.0525346   0.0012453   0.0060533
    2   0.0929306  -0.1394344   0.0733256   0.0015945  -0.0608057  -0.0388004
    3  -0.0801781   0.0725427  -0.1160830   0.0018822  -0.0394678  -0.2833987
    4  -0.0362869  -0.0095575   0.0134587  -0.0156818  -0.0029097   0.0141693
    5   0.0152309   0.0096487  -0.0088005  -0.0001085   0.0031605   0.0020775
    6  -0.0132384  -0.0057904   0.0093481   0.0363655   0.0104958  -0.0075912
    7   0.0007425  -0.0003260   0.0000169   0.0009372  -0.0017215  -0.0029224
    8   0.0012416  -0.0001477  -0.0000464   0.0021848  -0.0003287  -0.0022801
    9   0.0007861  -0.0004972   0.0000480   0.0025842   0.0006291  -0.0016792
   10  -0.0002335   0.0000646  -0.0000253  -0.0002282   0.0002951   0.0005323
   11   0.0010289   0.0004321  -0.0000691  -0.0010588   0.0014670   0.0001310
   12  -0.0006375   0.0001397  -0.0000841  -0.0002066   0.0005007   0.0012434
   13  -0.0018189  -0.0003037   0.0004738   0.0004427  -0.0006700   0.0006093
   14  -0.0009049  -0.0003086  -0.0000124   0.0004858  -0.0010082   0.0001320
   15  -0.0015709  -0.0003933   0.0008257  -0.0006736   0.0000952   0.0009405
   16   0.0051389   0.0197605   0.0052578   0.0018425   0.0003696  -0.0012281
   17  -0.0020092  -0.0152647  -0.0048785   0.0005563  -0.0035161  -0.0007341
   18   0.0022958   0.0160050   0.0041742  -0.0040812  -0.0310198  -0.0058378
   19   0.1837494  -0.1036513   0.0870369   0.0029027  -0.0008359  -0.0000953
   20  -0.1036513   0.1408260  -0.0790239  -0.0048865   0.0041732  -0.0039017
   21   0.0870369  -0.0790239   0.1163942  -0.0199465   0.0184837  -0.0129523
   22   0.0029027  -0.0048865  -0.0199465   0.0603200   0.0024950  -0.0170050
   23  -0.0008359   0.0041732   0.0184837   0.0024950   0.0574113   0.0410392
   24  -0.0000953  -0.0039017  -0.0129523  -0.0170050   0.0410392   0.3092901
   25  -0.0002132   0.0000952  -0.0000503  -0.0001397  -0.0000252   0.0013256
   26  -0.0000880   0.0000965   0.0003418  -0.0008405   0.0000074   0.0013772
   27  -0.0002598  -0.0000882  -0.0001697  -0.0004616  -0.0001058   0.0008318
   28  -0.0000808  -0.0000156  -0.0000919   0.0001031  -0.0000038  -0.0002996
   29  -0.0000808  -0.0000299  -0.0000040   0.0000231  -0.0000568  -0.0001439
   30  -0.0000041   0.0000363   0.0000856  -0.0001756  -0.0001069   0.0000230
   31  -0.0002314   0.0001755  -0.0000579  -0.0004671   0.0004892   0.0008588
   32  -0.0000420  -0.0000457  -0.0000166   0.0001530  -0.0003913  -0.0002883
   33  -0.0001348   0.0000616  -0.0000480  -0.0001523  -0.0000729   0.0003260
   34   0.0000215   0.0000137  -0.0000055   0.0000951  -0.0000675  -0.0003663
   35  -0.0000830   0.0000054  -0.0000372   0.0000494  -0.0001697   0.0000327
   36   0.0000948  -0.0000097   0.0000007  -0.0000808  -0.0001575  -0.0002965
   37  -0.0005510  -0.0018535   0.0014181   0.0024081   0.0013393  -0.0016320
   38  -0.0027369   0.0000492   0.0007374  -0.0006475   0.0000570   0.0013590
   39   0.0059052   0.0009190  -0.0015394   0.0019512  -0.0003129  -0.0008990
           25          26          27          28          29          30
    1   0.0036829   0.0028414   0.0014766  -0.0002458  -0.0003518  -0.0001454
    2   0.0004873   0.0001391   0.0000323  -0.0007852  -0.0003510  -0.0004379
    3  -0.0036453  -0.0036545  -0.0007186   0.0004231   0.0001493  -0.0002149
    4  -0.0018583  -0.0016789  -0.0008729   0.0006213   0.0008596   0.0017806
    5  -0.0083029  -0.0089891  -0.0090449   0.0000669   0.0007136  -0.0006537
    6  -0.0069235  -0.0089783  -0.0080099   0.0027272   0.0012507   0.0037688
    7  -0.1889525  -0.0187819   0.1560255  -0.0636020   0.0112120  -0.0033817
    8  -0.0253099  -0.0542699   0.0419301   0.0040418  -0.2502308   0.1253552
    9   0.1424572   0.0428325  -0.1868507  -0.0065641   0.1347291  -0.1326066
   10  -0.0215778   0.0052576  -0.0121416   0.0128757  -0.0085873   0.0031053
   11  -0.0091368   0.0039675  -0.0031946   0.0257986  -0.0034834   0.0049647
   12   0.0175491  -0.0124641   0.0019874  -0.0094512   0.0032812   0.0018840
   13   0.0048238  -0.0005348   0.0015385  -0.0063776   0.0031339  -0.0023542
   14   0.0003157   0.0024656   0.0007526   0.0014697  -0.0031726  -0.0022168
   15  -0.0021706  -0.0005330  -0.0008175   0.0005535   0.0025763   0.0038746
   16  -0.0001204  -0.0001346  -0.0004940  -0.0002365  -0.0000413  -0.0002049
   17   0.0000926   0.0000386   0.0001056   0.0000119   0.0000857   0.0000309
   18   0.0007318   0.0007978   0.0004326  -0.0002309  -0.0000426   0.0000575
   19  -0.0002132  -0.0000880  -0.0002598  -0.0000808  -0.0000808  -0.0000041
   20   0.0000952   0.0000965  -0.0000882  -0.0000156  -0.0000299   0.0000363
   21  -0.0000503   0.0003418  -0.0001697  -0.0000919  -0.0000040   0.0000856
   22  -0.0001397  -0.0008405  -0.0004616   0.0001031   0.0000231  -0.0001756
   23  -0.0000252   0.0000074  -0.0001058  -0.0000038  -0.0000568  -0.0001069
   24   0.0013256   0.0013772   0.0008318  -0.0002996  -0.0001439   0.0000230
   25   0.2049599   0.0318211  -0.1502327   0.0062816   0.0037191  -0.0013924
   26   0.0318211   0.0542135  -0.0366930  -0.0154881   0.0008718   0.0154329
   27  -0.1502327  -0.0366930   0.1900600   0.0110516   0.0005121  -0.0029574
   28   0.0062816  -0.0154881   0.0110516   0.0475587  -0.0128773   0.0003549
   29   0.0037191   0.0008718   0.0005121  -0.0128773   0.2527395  -0.1433486
   30  -0.0013924   0.0154329  -0.0029574   0.0003549  -0.1433486   0.1264508
   31  -0.0025197  -0.0043645  -0.0036574   0.0038783   0.0020223   0.0035621
   32   0.0011161   0.0009277   0.0024443  -0.0004704   0.0040135   0.0034208
   33   0.0029027   0.0013789   0.0046153   0.0011794   0.0006642   0.0006335
   34  -0.0030401   0.0030582  -0.0004659  -0.0003214  -0.0000877  -0.0012632
   35   0.0046131   0.0006527   0.0031236  -0.0012559  -0.0004887  -0.0012009
   36  -0.0001810   0.0021638   0.0030538   0.0006630  -0.0005568  -0.0005242
   37  -0.0013264  -0.0010670  -0.0015063  -0.0004546   0.0010560   0.0001187
   38   0.0005145  -0.0001214   0.0002259  -0.0004926  -0.0006111  -0.0012759
   39  -0.0003705  -0.0020018  -0.0014572  -0.0003152   0.0009329  -0.0004747
           31          32          33          34          35          36
    1   0.0051629  -0.0012244   0.0016044  -0.0007152   0.0000491  -0.0013025
    2  -0.0022641   0.0014803  -0.0012291   0.0003302   0.0001271  -0.0000962
    3  -0.0030834   0.0012263  -0.0011093   0.0007173  -0.0000979   0.0007668
    4  -0.0095627  -0.0011020  -0.0060202   0.0012675  -0.0016122   0.0014831
    5  -0.0199453   0.0123470  -0.0022857   0.0033244   0.0011824   0.0034680
    6  -0.0070303  -0.0004044  -0.0009449   0.0006341  -0.0007773   0.0020716
    7   0.0162270  -0.0319060  -0.0016513  -0.0245623   0.0080854  -0.0138334
    8   0.0082499  -0.0252871  -0.0118255  -0.0059742   0.0038841  -0.0068186
    9   0.0147971  -0.0378630  -0.0304691   0.0155714  -0.0137824  -0.0040301
   10  -0.0408927   0.0068884  -0.0163445  -0.1717951  -0.0383884   0.1014414
   11  -0.0506371   0.0043112  -0.0260537  -0.0239586  -0.0634199   0.0428200
   12  -0.0445757  -0.0099078  -0.0878917   0.0977770   0.0342367  -0.1186564
   13   0.0127678  -0.0171232   0.0017957   0.0050501  -0.0265007   0.0055591
   14   0.0193644  -0.0539408  -0.0061552  -0.0172427  -0.0234849   0.0090369
   15   0.0050227  -0.0082571   0.0173994   0.0035959   0.0231723   0.0021830
   16  -0.0018648   0.0009893  -0.0006529   0.0002995   0.0000141   0.0002474
   17  -0.0004815   0.0000190  -0.0002132  -0.0000090  -0.0000005   0.0000338
   18   0.0007822  -0.0002072   0.0003272  -0.0001808   0.0000722  -0.0001535
   19  -0.0002314  -0.0000420  -0.0001348   0.0000215  -0.0000830   0.0000948
   20   0.0001755  -0.0000457   0.0000616   0.0000137   0.0000054  -0.0000097
   21  -0.0000579  -0.0000166  -0.0000480  -0.0000055  -0.0000372   0.0000007
   22  -0.0004671   0.0001530  -0.0001523   0.0000951   0.0000494  -0.0000808
   23   0.0004892  -0.0003913  -0.0000729  -0.0000675  -0.0001697  -0.0001575
   24   0.0008588  -0.0002883   0.0003260  -0.0003663   0.0000327  -0.0002965
   25  -0.0025197   0.0011161   0.0029027  -0.0030401   0.0046131  -0.0001810
   26  -0.0043645   0.0009277   0.0013789   0.0030582   0.0006527   0.0021638
   27  -0.0036574   0.0024443   0.0046153  -0.0004659   0.0031236   0.0030538
   28   0.0038783  -0.0004704   0.0011794  -0.0003214  -0.0012559   0.0006630
   29   0.0020223   0.0040135   0.0006642  -0.0000877  -0.0004887  -0.0005568
   30   0.0035621   0.0034208   0.0006335  -0.0012632  -0.0012009  -0.0005242
   31   0.0256931   0.0331895   0.0180530   0.0036831   0.0091207   0.0218593
   32   0.0331895   0.0608415   0.0503777  -0.0025097   0.0005534  -0.0076674
   33   0.0180530   0.0503777   0.1107100  -0.0011047  -0.0055466  -0.0138473
   34   0.0036831  -0.0025097  -0.0011047   0.1877551   0.0440709  -0.1170510
   35   0.0091207   0.0005534  -0.0055466   0.0440709   0.0820943  -0.0419406
   36   0.0218593  -0.0076674  -0.0138473  -0.1170510  -0.0419406   0.1297027
   37  -0.0118738   0.0120414   0.0005253   0.0022622   0.0018377   0.0011005
   38   0.0050810  -0.0048287   0.0008995  -0.0009479  -0.0009357  -0.0002759
   39  -0.0065304   0.0071426   0.0002988   0.0021416   0.0027453  -0.0002706
           37          38          39
    1  -0.0317242  -0.0071457   0.0106325
    2   0.0078101   0.0069050  -0.0130689
    3  -0.0110693  -0.0064082   0.0107562
    4  -0.1265026   0.0761167  -0.0833629
    5   0.0324122  -0.0938479   0.0629107
    6  -0.0562742   0.0719779  -0.1143277
    7   0.0235405  -0.0048900   0.0121551
    8   0.0275931  -0.0262838   0.0139785
    9   0.0226069  -0.0090079   0.0157351
   10  -0.0152486  -0.0091679  -0.0085568
   11  -0.0610587   0.0090367  -0.0368159
   12  -0.0140920   0.0001074  -0.0025198
   13   0.0268260  -0.0049237   0.0303062
   14   0.0287754  -0.0204098   0.0182162
   15   0.0229564  -0.0022875   0.0033764
   16   0.0002991  -0.0012613  -0.0004879
   17   0.0006129  -0.0001678   0.0010953
   18  -0.0006840  -0.0003106   0.0000410
   19  -0.0005510  -0.0027369   0.0059052
   20  -0.0018535   0.0000492   0.0009190
   21   0.0014181   0.0007374  -0.0015394
   22   0.0024081  -0.0006475   0.0019512
   23   0.0013393   0.0000570  -0.0003129
   24  -0.0016320   0.0013590  -0.0008990
   25  -0.0013264   0.0005145  -0.0003705
   26  -0.0010670  -0.0001214  -0.0020018
   27  -0.0015063   0.0002259  -0.0014572
   28  -0.0004546  -0.0004926  -0.0003152
   29   0.0010560  -0.0006111   0.0009329
   30   0.0001187  -0.0012759  -0.0004747
   31  -0.0118738   0.0050810  -0.0065304
   32   0.0120414  -0.0048287   0.0071426
   33   0.0005253   0.0008995   0.0002988
   34   0.0022622  -0.0009479   0.0021416
   35   0.0018377  -0.0009357   0.0027453
   36   0.0011005  -0.0002759  -0.0002706
   37   0.1323451  -0.0494989   0.0365320
   38  -0.0494989   0.1311583  -0.0557410
   39   0.0365320  -0.0557410   0.0912809
 Gradient time:  CPU 4774.64 s  wall 1435.32 s
 **********************************************************************
 **                                                                  **
 **                       VIBRATIONAL ANALYSIS                       **
 **                       --------------------                       **
 **                                                                  **
 **        VIBRATIONAL FREQUENCIES (CM**-1) AND NORMAL MODES         **
 **     FORCE CONSTANTS (mDYN/ANGSTROM) AND REDUCED MASSES (AMU)     **
 **                  INFRARED INTENSITIES (KM/MOL)                   **
 **                                                                  **
 **********************************************************************
 

 Mode:                 1                      2                      3
 Frequency:      -982.85                 185.33                 227.06
 Force Cnst:      1.0114                 0.0669                 0.0726
 Red. Mass:       1.7771                 3.3038                 2.3894
 IR Active:          YES                    YES                    YES
 IR Intens:      302.724                 45.385                  7.183
 Raman Active:       YES                    YES                    YES
               X      Y      Z        X      Y      Z        X      Y      Z
 C          0.010  0.013  0.008   -0.195  0.086 -0.177    0.051  0.188  0.089
 O          0.050  0.054  0.049   -0.027 -0.063  0.146    0.062 -0.117 -0.099
 C         -0.116 -0.088 -0.114   -0.046 -0.102  0.046   -0.126 -0.110 -0.029
 C          0.042  0.101  0.083    0.051  0.026 -0.055   -0.060  0.024  0.050
 O         -0.047 -0.038 -0.028    0.228  0.043  0.042    0.067  0.003 -0.015
 H          0.075  0.011 -0.032   -0.262  0.107 -0.213   -0.291  0.275 -0.013
 H          0.011  0.003 -0.002    0.022  0.163 -0.397    0.136  0.476  0.307
 H         -0.003 -0.020  0.004   -0.463  0.134 -0.207    0.296  0.064  0.127
 H          0.015  0.056  0.056    0.067 -0.126  0.159   -0.167 -0.201 -0.090
 H         -0.169 -0.084 -0.119   -0.196 -0.132  0.010   -0.168 -0.093  0.002
 H          0.698 -0.483  0.100    0.097  0.082 -0.116   -0.280  0.027  0.094
 H         -0.127 -0.060 -0.220   -0.072  0.066 -0.192   -0.025  0.161  0.161
 H          0.220  0.031  0.152   -0.120 -0.106  0.181    0.052 -0.113 -0.096
 TransDip  -0.521  0.098 -0.170   -0.194 -0.047 -0.083   -0.084 -0.018  0.006

 Mode:                 4                      5                      6
 Frequency:       274.89                 288.03                 387.46
 Force Cnst:      0.0679                 0.1110                 0.2674
 Red. Mass:       1.5250                 2.2713                 3.0229
 IR Active:          YES                    YES                    YES
 IR Intens:       44.741                 77.378                  9.301
 Raman Active:       YES                    YES                    YES
               X      Y      Z        X      Y      Z        X      Y      Z
 C          0.020  0.056  0.004    0.008  0.010  0.049   -0.144 -0.056  0.015
 O          0.056 -0.087  0.040   -0.072  0.153 -0.114   -0.134 -0.065 -0.056
 C         -0.007  0.031  0.043   -0.059 -0.126 -0.040    0.084  0.069 -0.115
 C         -0.021  0.023  0.019    0.002 -0.040  0.026    0.121  0.087  0.239
 O         -0.047 -0.015 -0.118    0.119 -0.021  0.095    0.093 -0.014 -0.078
 H          0.121 -0.059  0.492    0.302 -0.127  0.489   -0.161 -0.047 -0.008
 H          0.054 -0.252 -0.412   -0.139 -0.395 -0.208   -0.153 -0.031  0.059
 H         -0.193  0.575 -0.087   -0.021  0.442 -0.021   -0.087 -0.081  0.022
 H         -0.048 -0.032 -0.012   -0.038 -0.120 -0.017   -0.097  0.131 -0.292
 H          0.012  0.073  0.107   -0.090 -0.140 -0.059    0.239  0.083 -0.116
 H         -0.092 -0.056  0.115   -0.086  0.032 -0.026   -0.015 -0.205  0.408
 H          0.025  0.089  0.114   -0.018  0.003  0.015    0.278  0.203  0.481
 H          0.071 -0.025  0.140   -0.080  0.048 -0.285   -0.079 -0.004 -0.079
 TransDip   0.148  0.077  0.134   -0.213 -0.117 -0.142   -0.062  0.059  0.047

 Mode:                 7                      8                      9
 Frequency:       426.22                 560.59                 838.21
 Force Cnst:      0.2433                 0.4301                 0.4964
 Red. Mass:       2.2731                 2.3227                 1.1991
 IR Active:          YES                    YES                    YES
 IR Intens:       25.064                 28.384                  9.149
 Raman Active:       YES                    YES                    YES
               X      Y      Z        X      Y      Z        X      Y      Z
 C          0.035 -0.005 -0.006   -0.027 -0.006  0.002   -0.000  0.002  0.003
 O          0.049  0.128  0.182   -0.026 -0.000 -0.020   -0.000  0.006  0.021
 C         -0.030 -0.083 -0.149    0.072 -0.167  0.007   -0.017  0.032 -0.083
 C         -0.045 -0.045  0.007    0.179  0.071 -0.031   -0.008 -0.011 -0.062
 O          0.004 -0.038 -0.072   -0.149  0.108 -0.003    0.021 -0.010  0.052
 H          0.128  0.009 -0.169   -0.020 -0.008  0.007    0.025  0.001 -0.016
 H          0.044  0.010 -0.002   -0.045 -0.012  0.020   -0.003 -0.002  0.001
 H         -0.091 -0.152  0.010   -0.011 -0.008  0.005   -0.027 -0.025  0.009
 H         -0.097  0.013 -0.206    0.308 -0.592  0.154   -0.092 -0.389 -0.252
 H          0.075 -0.122 -0.216   -0.384 -0.098  0.159    0.073  0.494  0.624
 H         -0.648  0.209  0.038   -0.141  0.119  0.012   -0.033 -0.321  0.107
 H          0.187  0.129  0.401    0.383  0.048  0.229    0.026  0.021 -0.007
 H          0.034  0.052  0.166    0.015  0.047  0.033    0.001  0.018  0.053
 TransDip   0.016 -0.150 -0.054    0.149 -0.079  0.027   -0.024  0.093  0.014

 Mode:                10                     11                     12
 Frequency:       962.08                1052.53                1077.28
 Force Cnst:      0.8491                 3.6973                 0.8720
 Red. Mass:       1.5570                 5.6646                 1.2753
 IR Active:          YES                    YES                    YES
 IR Intens:        6.340                 74.367                  2.843
 Raman Active:       YES                    YES                    YES
               X      Y      Z        X      Y      Z        X      Y      Z
 C         -0.031 -0.005  0.011   -0.404 -0.108  0.160    0.004  0.001  0.003
 O          0.013  0.008 -0.004    0.363  0.084 -0.147   -0.003  0.000  0.006
 C          0.068 -0.163  0.040   -0.027  0.025 -0.010    0.001  0.025 -0.043
 C         -0.034  0.030  0.026   -0.013 -0.011 -0.031    0.001  0.013  0.127
 O         -0.030  0.089 -0.026    0.007 -0.036  0.004    0.002 -0.051 -0.037
 H          0.007 -0.007 -0.004   -0.285 -0.092  0.086   -0.001  0.005 -0.011
 H         -0.035 -0.015  0.008   -0.272 -0.047  0.069    0.021  0.007 -0.014
 H         -0.037 -0.026  0.014   -0.319 -0.058  0.130   -0.033 -0.007  0.003
 H         -0.286  0.012 -0.300    0.175  0.170  0.230   -0.015 -0.293 -0.126
 H          0.759 -0.067  0.154   -0.012  0.125  0.143   -0.134  0.169  0.196
 H          0.081  0.078 -0.055   -0.191  0.145 -0.084    0.189  0.684 -0.443
 H         -0.277  0.128 -0.254    0.080 -0.024  0.098   -0.110 -0.240 -0.137
 H          0.028 -0.005  0.005    0.242  0.130  0.174    0.011  0.015 -0.015
 TransDip  -0.031 -0.071  0.024   -0.249 -0.075  0.092   -0.001  0.035 -0.041

 Mode:                13                     14                     15
 Frequency:      1119.23                1143.03                1201.35
 Force Cnst:      0.9150                 0.9401                 1.0825
 Red. Mass:       1.2398                 1.2213                 1.2731
 IR Active:          YES                    YES                    YES
 IR Intens:       36.202                 34.977                  3.156
 Raman Active:       YES                    YES                    YES
               X      Y      Z        X      Y      Z        X      Y      Z
 C          0.004  0.032 -0.065    0.038 -0.044  0.046    0.003  0.113  0.068
 O         -0.022 -0.029 -0.013   -0.025  0.005  0.001   -0.004 -0.054 -0.031
 C         -0.084 -0.039 -0.011   -0.079 -0.035 -0.032    0.010 -0.010 -0.017
 C          0.070 -0.004 -0.002    0.052 -0.023  0.007   -0.029  0.004  0.010
 O          0.006 -0.012 -0.001   -0.015  0.027 -0.006    0.005  0.008 -0.004
 H          0.119 -0.027  0.106   -0.199  0.028 -0.089    0.623  0.078 -0.348
 H         -0.288 -0.096  0.199    0.397  0.159 -0.228   -0.168 -0.258 -0.124
 H          0.347  0.008 -0.036   -0.240  0.079 -0.000   -0.391 -0.338  0.104
 H          0.049  0.399  0.240    0.115  0.406  0.277    0.163  0.071  0.159
 H          0.211  0.153  0.255    0.203  0.186  0.274    0.023  0.033  0.052
 H         -0.096  0.140 -0.126   -0.025  0.069 -0.089   -0.018 -0.003 -0.002
 H          0.117 -0.054  0.040    0.143 -0.077  0.080   -0.005 -0.026  0.026
 H         -0.084  0.253  0.462    0.118 -0.136 -0.388   -0.034 -0.092 -0.035
 TransDip   0.085  0.080  0.153   -0.058 -0.149 -0.101   -0.055 -0.016  0.001

 Mode:                16                     17                     18
 Frequency:      1206.97                1243.00                1287.74
 Force Cnst:      1.4295                 1.2338                 1.3314
 Red. Mass:       1.6655                 1.3553                 1.3627
 IR Active:          YES                    YES                    YES
 IR Intens:       13.862                200.717                 76.606
 Raman Active:       YES                    YES                    YES
               X      Y      Z        X      Y      Z        X      Y      Z
 C         -0.009 -0.016 -0.047    0.044 -0.025  0.045   -0.034  0.026 -0.032
 O         -0.002  0.001  0.025   -0.044 -0.000 -0.050    0.026 -0.006  0.044
 C          0.112 -0.040 -0.088    0.039 -0.005 -0.010   -0.012  0.021 -0.008
 C         -0.166  0.044  0.061    0.028  0.083  0.002    0.127  0.039  0.008
 O          0.021  0.017 -0.014   -0.002 -0.089  0.027   -0.041 -0.058  0.019
 H         -0.083 -0.036  0.122   -0.128  0.033 -0.105    0.108 -0.018  0.064
 H         -0.075  0.025  0.100    0.264  0.091 -0.141   -0.195 -0.075  0.081
 H          0.273  0.104 -0.049   -0.271  0.021  0.015    0.178 -0.034 -0.009
 H          0.662 -0.034  0.472    0.139 -0.015  0.088   -0.067  0.141 -0.032
 H          0.049  0.091  0.142    0.000 -0.021 -0.029   -0.096  0.065  0.038
 H         -0.113 -0.104  0.065   -0.376 -0.005  0.062   -0.371  0.055  0.080
 H         -0.220 -0.016 -0.029   -0.312  0.231 -0.321   -0.295  0.281 -0.399
 H         -0.027 -0.172 -0.117    0.100  0.451  0.363    0.014 -0.414 -0.433
 TransDip  -0.115  0.033  0.004    0.214  0.360  0.173   -0.181 -0.054 -0.207

 Mode:                19                     20                     21
 Frequency:      1314.50                1440.62                1483.42
 Force Cnst:      1.6574                 1.5780                 1.4745
 Red. Mass:       1.6280                 1.2905                 1.1373
 IR Active:          YES                    YES                    YES
 IR Intens:       86.842                 40.520                 17.623
 Raman Active:       YES                    YES                    YES
               X      Y      Z        X      Y      Z        X      Y      Z
 C         -0.002  0.006 -0.011   -0.004 -0.016  0.021   -0.100 -0.013  0.024
 O         -0.013 -0.006  0.006    0.006  0.006 -0.011   -0.011 -0.004  0.002
 C          0.014 -0.015  0.020    0.064 -0.033 -0.031   -0.016  0.014  0.007
 C         -0.052  0.131 -0.095   -0.006 -0.120  0.030    0.007  0.013 -0.005
 O         -0.013 -0.128  0.053   -0.011  0.046 -0.011   -0.001 -0.009 -0.001
 H          0.005 -0.001  0.020    0.054  0.001 -0.107    0.490 -0.103 -0.033
 H         -0.030 -0.010  0.006    0.104  0.036 -0.065    0.451  0.301 -0.354
 H          0.032 -0.008 -0.004    0.068  0.085  0.003    0.521 -0.023  0.061
 H          0.026  0.001  0.026   -0.075  0.328 -0.087    0.019 -0.110  0.014
 H          0.194 -0.015  0.016   -0.468  0.096  0.194    0.102 -0.024 -0.059
 H          0.358  0.186 -0.301    0.217  0.036 -0.071   -0.021  0.007  0.017
 H          0.200  0.618  0.441   -0.220  0.596  0.071    0.020 -0.044 -0.014
 H          0.109 -0.097 -0.134   -0.233  0.004  0.170   -0.089  0.013  0.047
 TransDip   0.059  0.291 -0.029   -0.137 -0.140  0.055   -0.106 -0.061 -0.056

 Mode:                22                     23                     24
 Frequency:      1499.41                1507.70                1519.39
 Force Cnst:      1.6590                 1.6057                 1.4564
 Red. Mass:       1.2524                 1.1989                 1.0707
 IR Active:          YES                    YES                    YES
 IR Intens:       29.942                 36.583                 23.409
 Raman Active:       YES                    YES                    YES
               X      Y      Z        X      Y      Z        X      Y      Z
 C          0.006 -0.036 -0.019   -0.013 -0.042 -0.024   -0.004  0.037 -0.056
 O          0.007 -0.005 -0.004   -0.006 -0.006 -0.003   -0.005 -0.001 -0.004
 C         -0.079  0.058 -0.018    0.062 -0.046  0.017    0.008 -0.004 -0.007
 C          0.045 -0.084  0.023   -0.034  0.078 -0.022   -0.003 -0.028  0.007
 O         -0.009  0.024 -0.004    0.006 -0.024  0.004    0.001  0.012 -0.000
 H          0.275 -0.071 -0.004    0.395 -0.100 -0.000    0.073 -0.133  0.681
 H         -0.014  0.299  0.401    0.039  0.394  0.409    0.135  0.241  0.022
 H         -0.296  0.281 -0.077   -0.258  0.315 -0.082   -0.217 -0.580  0.049
 H          0.200 -0.351  0.184   -0.169  0.294 -0.148    0.010  0.049  0.010
 H          0.327 -0.027 -0.183   -0.255  0.021  0.146   -0.060  0.012  0.021
 H          0.078  0.017 -0.034   -0.068 -0.008  0.032    0.019 -0.004 -0.020
 H         -0.109  0.323 -0.007    0.100 -0.279  0.002   -0.035  0.078  0.013
 H         -0.096 -0.030  0.033    0.030 -0.038 -0.029    0.130  0.105 -0.045
 TransDip  -0.047 -0.166 -0.029    0.013  0.187  0.050    0.109 -0.017  0.108

 Mode:                25                     26                     27
 Frequency:      1585.94                2042.05                2496.57
 Force Cnst:      1.6695                 2.5970                 4.0361
 Red. Mass:       1.1266                 1.0570                 1.0991
 IR Active:          YES                    YES                    YES
 IR Intens:      109.871                109.462                516.672
 Raman Active:       YES                    YES                    YES
               X      Y      Z        X      Y      Z        X      Y      Z
 C         -0.039  0.014 -0.014    0.001  0.000 -0.001   -0.001  0.004 -0.001
 O         -0.024 -0.035  0.030   -0.001 -0.003  0.002    0.050 -0.033  0.039
 C          0.012  0.006 -0.001   -0.011 -0.013 -0.024   -0.006 -0.014 -0.007
 C         -0.010 -0.063  0.007   -0.010 -0.014 -0.054   -0.003  0.026  0.005
 O          0.004  0.024  0.005   -0.002 -0.015  0.007   -0.009 -0.013 -0.004
 H          0.113  0.015 -0.138   -0.006  0.002  0.006   -0.001  0.024  0.009
 H         -0.123 -0.025  0.032   -0.003 -0.003  0.004   -0.009 -0.029  0.034
 H          0.145  0.134 -0.026   -0.004 -0.004 -0.004   -0.013 -0.010 -0.032
 H         -0.002  0.001 -0.017    0.043  0.015  0.023    0.003  0.008  0.008
 H         -0.065 -0.001 -0.003    0.022  0.025  0.037    0.007 -0.010  0.004
 H         -0.002 -0.006 -0.039    0.254  0.528  0.800    0.036 -0.069 -0.025
 H         -0.050  0.083  0.025   -0.024 -0.009 -0.047    0.045 -0.000 -0.036
 H          0.747  0.485 -0.303    0.006  0.056 -0.020   -0.592  0.631 -0.480
 TransDip   0.323  0.056  0.073   -0.082 -0.272 -0.178   -0.660  0.082 -0.296

 Mode:                28                     29                     30
 Frequency:      2888.40                2963.55                3028.12
 Force Cnst:      5.3137                 5.3624                 5.9512
 Red. Mass:       1.0810                 1.0363                 1.1016
 IR Active:          YES                    YES                    YES
 IR Intens:       56.366                 45.421                 34.372
 Raman Active:       YES                    YES                    YES
               X      Y      Z        X      Y      Z        X      Y      Z
 C          0.000 -0.000 -0.001    0.028  0.012 -0.040   -0.018 -0.063 -0.066
 O         -0.002  0.002 -0.002    0.004 -0.000  0.001   -0.001  0.000  0.000
 C          0.002  0.002 -0.001   -0.000 -0.002 -0.002    0.001 -0.001 -0.001
 C         -0.063 -0.021  0.047    0.001  0.001 -0.000    0.000 -0.000  0.000
 O          0.000 -0.002  0.000   -0.000 -0.000  0.000   -0.000  0.000  0.000
 H         -0.000 -0.005 -0.002   -0.085 -0.480 -0.109    0.129  0.777  0.143
 H         -0.003  0.004 -0.004   -0.238  0.197 -0.175    0.116 -0.115  0.069
 H          0.000  0.002  0.013   -0.046  0.127  0.776   -0.031  0.078  0.559
 H         -0.006 -0.001  0.009   -0.007  0.002  0.014   -0.012  0.000  0.016
 H         -0.010 -0.024  0.014   -0.000  0.005 -0.003   -0.001  0.012 -0.007
 H         -0.022  0.011  0.017    0.006 -0.002  0.002    0.000 -0.000  0.001
 H          0.748  0.268 -0.597   -0.010 -0.003  0.006   -0.002 -0.000  0.001
 H          0.033 -0.023  0.030   -0.026  0.025 -0.023    0.004 -0.000  0.003
 TransDip  -0.135 -0.120  0.159    0.173  0.066 -0.111   -0.057 -0.121 -0.132

 Mode:                31                     32                     33
 Frequency:      3077.33                3097.33                3217.85
 Force Cnst:      6.1547                 5.9700                 6.8344
 Red. Mass:       1.1031                 1.0562                 1.1203
 IR Active:          YES                    YES                    YES
 IR Intens:       23.023                  1.194                  1.735
 Raman Active:       YES                    YES                    YES
               X      Y      Z        X      Y      Z        X      Y      Z
 C         -0.046  0.067 -0.046    0.001 -0.001  0.003    0.001 -0.000 -0.001
 O         -0.001 -0.000 -0.000   -0.000  0.000 -0.000   -0.000 -0.000 -0.001
 C          0.001 -0.001  0.000    0.041 -0.052  0.004   -0.047 -0.050  0.074
 C         -0.000 -0.000 -0.000   -0.005  0.002 -0.000   -0.002 -0.001  0.002
 O          0.000  0.000  0.000    0.000  0.000 -0.000    0.000  0.000 -0.000
 H         -0.062 -0.314 -0.080   -0.001 -0.002 -0.000    0.001  0.001  0.001
 H          0.617 -0.519  0.444   -0.016  0.013 -0.011   -0.000 -0.000  0.000
 H         -0.016  0.046  0.179    0.002 -0.004 -0.027   -0.000  0.002  0.012
 H         -0.013 -0.002  0.012   -0.409 -0.100  0.398    0.582  0.123 -0.559
 H         -0.001  0.018 -0.012   -0.026  0.678 -0.445   -0.024  0.479 -0.305
 H         -0.001  0.001 -0.000    0.001  0.006  0.006   -0.001 -0.001 -0.008
 H          0.000 -0.000 -0.000    0.012  0.002 -0.006    0.020  0.004 -0.015
 H          0.016 -0.004  0.004    0.001  0.004  0.001   -0.002  0.004  0.002
 TransDip  -0.092  0.093 -0.081    0.028 -0.020  0.009   -0.028 -0.026  0.017

 STANDARD THERMODYNAMIC QUANTITIES AT   298.15 K  AND     1.00 ATM

   This Molecule has  1 Imaginary Frequencies
   Zero point vibrational energy:       66.680 kcal/mol

   Atom    1 Element C  Has Mass   12.00000
   Atom    2 Element O  Has Mass   15.99491
   Atom    3 Element C  Has Mass   12.00000
   Atom    4 Element C  Has Mass   12.00000
   Atom    5 Element O  Has Mass   15.99491
   Atom    6 Element H  Has Mass    1.00783
   Atom    7 Element H  Has Mass    1.00783
   Atom    8 Element H  Has Mass    1.00783
   Atom    9 Element H  Has Mass    1.00783
   Atom   10 Element H  Has Mass    1.00783
   Atom   11 Element H  Has Mass    1.00783
   Atom   12 Element H  Has Mass    1.00783
   Atom   13 Element H  Has Mass    1.00783
   Molecular Mass:    76.052460 amu
   Principal axes and moments of inertia in amu*Bohr^2:
                             1           2           3
    Eigenvalues --      204.60592   591.02467   705.40108
          X               0.91654    -0.21297    -0.33853
          Y               0.24146     0.96942     0.04388
          Z               0.31883    -0.12196     0.93993
   Rotational Symmetry Number is   1
   The Molecule is an Asymmetric Top
   Translational Enthalpy:        0.889 kcal/mol
   Rotational Enthalpy:           0.889 kcal/mol
   Vibrational Enthalpy:         68.620 kcal/mol
   gas constant (RT):             0.592 kcal/mol
   Translational Entropy:        38.902  cal/mol.K
   Rotational Entropy:           25.948  cal/mol.K
   Vibrational Entropy:          10.413  cal/mol.K

   Total Enthalpy:               70.990 kcal/mol
   Total Entropy:                75.263  cal/mol.K
Archival summary:
1\1\nid00504\FREQ\ProcedureUnspecified\BasisUnspecified\238\cgrambow\TueFeb1223:54:552019TueFeb1223:54:552019\0\\#,FREQ,ProcedureUnspecified,BasisUnspecified,\\0,1\O\H,1,1.04234\C,1,1.42742,2,107.96\H,3,1.09678,1,108.002,2,-172.545,0\H,3,1.10127,1,109.851,2,68.5587,0\H,3,1.10345,1,112.46,2,-52.0941,0\O,2,1.62762,1,149.31,3,122.336,0\C,7,1.30001,2,86.9979,1,10.6347,0\H,8,1.11334,7,119.669,2,108.808,0\H,8,1.24156,7,119.907,2,-128.261,0\C,8,1.45433,7,117.46,2,-38.1413,0\H,11,1.08848,8,117.118,7,-43.2538,0\H,11,1.09393,8,121.72,7,159.384,0\\\@

 Total job time:  1468.64s(wall), 5238.21s(cpu) 
 Tue Feb 12 23:54:55 2019

        *************************************************************
        *                                                           *
        *  Thank you very much for using Q-Chem.  Have a nice day.  *
        *                                                           *
        *************************************************************



Running Job 2 of 3 ts_optfreq0251.in
qchem ts_optfreq0251.in_61830.1 /tmp/qchem61830/ 1
/global/common/cori/software/qchem/5.1/exe/qcprog.exe ts_optfreq0251.in_61830.1 /tmp/qchem61830/
Check license passed

                  Welcome to Q-Chem
     A Quantum Leap Into The Future Of Chemistry


 Q-Chem 5.1, Q-Chem, Inc., Pleasanton, CA (2018)

 Yihan Shao,  Zhengting Gan,  E. Epifanovsky,  A. T. B. Gilbert,  M. Wormit,  
 J. Kussmann,  A. W. Lange,  A. Behn,  Jia Deng,  Xintian Feng,  D. Ghosh,  
 M. Goldey,  P. R. Horn,  L. D. Jacobson,  I. Kaliman,  T. Kus,  A. Landau,  
 Jie Liu,  E. I. Proynov,  R. M. Richard,  R. P. Steele,  E. J. Sundstrom,  
 H. L. Woodcock III,  P. M. Zimmerman,  D. Zuev,  B. Albrecht,  E. Alguire,  
 S. A. Baeppler,  D. Barton,  Z. Benda,  Y. A. Bernard,  E. J. Berquist,  
 K. B. Bravaya,  H. Burton,  D. Casanova,  Chun-Min Chang,  Yunqing Chen,  
 A. Chien,  K. D. Closser,  M. P. Coons,  S. Coriani,  S. Dasgupta,  
 A. L. Dempwolff,  M. Diedenhofen,  Hainam Do,  R. G. Edgar,  Po-Tung Fang,  
 S. Faraji,  S. Fatehi,  Qingguo Feng,  K. D. Fenk,  J. Fosso-Tande,  
 Qinghui Ge,  A. Ghysels,  G. Gidofalvi,  J. Gomes,  J. Gonthier,  A. Gunina,  
 D. Hait,  M. W. D. Hanson-Heine,  P. H. P. Harbach,  A. W. Hauser,  
 J. E. Herr,  E. G. Hohenstein,  Z. C. Holden,  Kerwin Hui,  B. C. Huynh,  
 T.-C. Jagau,  Hyunjun Ji,  B. Kaduk,  K. Khistyaev,  Jaehoon Kim,  
 P. Klunzinger,  K. Koh,  D. Kosenkov,  L. Koulias,  T. Kowalczyk,  
 C. M. Krauter,  A. Kunitsa,  Ka Un Lao,  A. Laurent,  K. V. Lawler,  
 Joonho Lee,  D. Lefrancois,  S. Lehtola,  D. S. Levine,  Yi-Pei Li,  
 You-Sheng Lin,  Fenglai Liu,  E. Livshits,  A. Luenser,  P. Manohar,  
 E. Mansoor,  S. F. Manzer,  Shan-Ping Mao,  Yuezhi Mao,  N. Mardirossian,  
 A. V. Marenich,  T. Markovich,  L. A. Martinez-Martinez,  S. A. Maurer,  
 N. J. Mayhall,  S. C. McKenzie,  J.-M. Mewes,  A. F. Morrison,  
 J. W. Mullinax,  K. Nanda,  T. S. Nguyen-Beck,  R. Olivares-Amaya,  
 J. A. Parkhill,  T. M. Perrine,  F. Plasser,  P. Pokhilko,  S. Prager,  
 A. Prociuk,  E. Ramos,  D. R. Rehn,  F. Rob,  M. Schneider,  N. Sergueev,  
 S. M. Sharada,  S. Sharma,  D. W. Small,  T. Stauch,  T. Stein,  
 Yu-Chuan Su,  A. J. W. Thom,  A. Tkatchenko,  T. Tsuchimochi,  N. M. Tubman,  
 L. Vogt,  M. L. Vidal,  O. Vydrov,  M. A. Watson,  J. Wenzel,  
 M. de Wergifosse,  T. A. Wesolowski,  A. White,  J. Witte,  A. Yamada,  
 Jun Yang,  K. Yao,  S. Yeganeh,  S. R. Yost,  Zhi-Qiang You,  A. Zech,  
 Igor Ying Zhang,  Xing Zhang,  Yan Zhao,  Ying Zhu,  B. R. Brooks,  
 G. K. L. Chan,  C. J. Cramer,  M. S. Gordon,  W. J. Hehre,  A. Klamt,  
 M. W. Schmidt,  C. D. Sherrill,  D. G. Truhlar,  A. Aspuru-Guzik,  R. Baer,  
 A. T. Bell,  N. A. Besley,  Jeng-Da Chai,  R. A. DiStasio Jr.,  A. Dreuw,  
 B. D. Dunietz,  T. R. Furlani,  Chao-Ping Hsu,  Yousung Jung,  Jing Kong,  
 D. S. Lambrecht,  WanZhen Liang,  C. Ochsenfeld,  V. A. Rassolov,  
 L. V. Slipchenko,  J. E. Subotnik,  T. Van Voorhis,  J. M. Herbert,  
 A. I. Krylov,  P. M. W. Gill,  M. Head-Gordon

 Contributors to earlier versions of Q-Chem not listed above: 
 R. D. Adamson,  B. Austin,  J. Baker,  G. J. O. Beran,  K. Brandhorst,  
 S. T. Brown,  E. F. C. Byrd,  A. K. Chakraborty,  C.-L. Cheng,  
 Siu Hung Chien,  D. M. Chipman,  D. L. Crittenden,  H. Dachsel,  
 R. J. Doerksen,  A. D. Dutoi,  L. Fusti-Molnar,  W. A. Goddard III,  
 A. Golubeva-Zadorozhnaya,  S. R. Gwaltney,  G. Hawkins,  A. Heyden,  
 S. Hirata,  G. Kedziora,  F. J. Keil,  C. Kelley,  Jihan Kim,  R. A. King,  
 R. Z. Khaliullin,  P. P. Korambath,  W. Kurlancheek,  A. M. Lee,  M. S. Lee,  
 S. V. Levchenko,  Ching Yeh Lin,  D. Liotard,  R. C. Lochan,  I. Lotan,  
 P. E. Maslen,  N. Nair,  D. P. O'Neill,  D. Neuhauser,  E. Neuscamman,  
 C. M. Oana,  R. Olson,  B. Peters,  R. Peverati,  P. A. Pieniazek,  
 Y. M. Rhee,  J. Ritchie,  M. A. Rohrdanz,  E. Rosta,  N. J. Russ,  
 H. F. Schaefer III,  N. E. Schultz,  N. Shenvi,  A. C. Simmonett,  A. Sodt,  
 D. Stuck,  K. S. Thanthiriwatte,  V. Vanovschi,  Tao Wang,  A. Warshel,  
 C. F. Williams,  Q. Wu,  X. Xu,  W. Zhang

 Please cite Q-Chem as follows:
 Y. Shao et al., Mol. Phys. 113, 184-215 (2015)
 DOI: 10.1080/00268976.2014.952696

 Q-Chem 5.1.0 for Intel X86 EM64T Linux

 Parts of Q-Chem use Armadillo 8.300.2 (Tropical Shenanigans).
 http://arma.sourceforge.net/

 Q-Chem begins on Tue Feb 12 23:54:55 2019  

Host: cori07
0

     Scratch files written to /tmp/qchem61830//
 Jun2518 |scratch|qcdevops|jenkins|workspace|build_RNUM -1
Processing $rem in /global/common/cori/software/qchem/5.1/config/preferences.
 MEM_TOTAL  96000 
The previous job contains 0 fragments, simply inherited here

Checking the input file for inconsistencies... 	...done.

--------------------------------------------------------------
User input:
--------------------------------------------------------------

$molecule
read
$end

$rem
JOBTYPE                   TS
METHOD                    wB97X-D3
BASIS                     def2-TZVP
UNRESTRICTED              TRUE
SCF_GUESS                 READ
GEOM_OPT_HESSIAN          READ
SCF_ALGORITHM             DIIS
MAX_SCF_CYCLES            100
SCF_CONVERGENCE           8
SYM_IGNORE                TRUE
SYMMETRY                  FALSE
GEOM_OPT_MAX_CYCLES       100
GEOM_OPT_TOL_GRADIENT     100
GEOM_OPT_TOL_DISPLACEMENT 400
GEOM_OPT_TOL_ENERGY       33
WAVEFUNCTION_ANALYSIS     FALSE
$end

--------------------------------------------------------------
 Adding empirical dispersion correction 
 ----------------------------------------------------------------
 Doing -D3(0) with
 s6  =   1.00000
 s8  =   1.00000
 rs6 =   1.28100
 rs8 =   1.09400
 -D3 energy without 3body term =     -0.0027510380 hartrees
 ----------------------------------------------------------------
             Standard Nuclear Orientation (Angstroms)
    I     Atom           X                Y                Z
 ----------------------------------------------------------------
    1      C       1.7204738732     0.8658149733     0.2848455539
    2      O       0.4320353519     0.5112794118     0.7865944814
    3      C      -0.4435431016    -1.0758148161    -0.2719464001
    4      C      -1.6814764916    -0.3282449511    -0.4260210607
    5      O      -1.5877353867     0.9235852211    -0.7638854176
    6      H       1.9224420851     1.9286769712     0.4905931028
    7      H       2.4668490972     0.2516790342     0.8032040244
    8      H       1.8093528057     0.7010799898    -0.8026128470
    9      H       0.3246488139    -0.9248355878    -1.0281744479
   10      H      -0.3983594246    -1.9994537791     0.3124691618
   11      H      -1.7666522713    -1.2017434560    -1.3042099927
   12      H      -2.5106594604    -0.6588785775     0.2393057666
   13      H      -0.2839468907     0.9995905661     0.2074570751
 ----------------------------------------------------------------
 Nuclear Repulsion Energy =   188.8396716251 hartrees
 There are       21 alpha and       21 beta electrons
 Requested basis set is def2-TZVP
 There are 87 shells and 203 basis functions

 Total QAlloc Memory Limit  96000 MB
 Mega-Array Size       188 MB
 MEM_STATIC part       192 MB
 A cutoff of  1.0D-11 yielded   3590 shell pairs
 There are     20014 function pairs (     25405 Cartesian)
 
 -------------------------------------------------------
 OpenMP Integral Computing Module                       
 Release: version 1.0, May 2013, Q-Chem Inc. Pittsburgh 
 -------------------------------------------------------
 Integral Job Info:
 Integral job number is                      11
 Integral operator is                         1
 short-range coefficients              19572800
 long-range coefficients              100000000
 Omega coefficients                         250
 if combine SR and LR in K                    1
 Integral screening is                        0
 Integral computing path is                   2
 max size of driver memory is            800000
 size of driver memory is                776718
 size of scratch memory is              4473992
 max col of scratch BK array              10000
 max len of scratch array in speh3          662
 max len of scratch index in speh4           32
 max int batch size is                      520
 min int batch size is                       52
 fixed nKL is                                52
 max L of basis functions is                  3
 order of int derivative is                   0
 number of shells is                         87
 number of basis is                         228
 number of cartesian basis is               228
 number of contracted shell pairs          3590
 number of primitive shell pairs           8115
 maxK2 (contraction) of shell pair           36
 max number of K2 of shell pair               1
 max number of CS2 of shell pair            569
 max number of PS2 of shell pair           1026
 mem total for path MDJ                  565364
 -------------------------------------------------------
 Smallest overlap matrix eigenvalue = 4.06E-04

 Scale SEOQF with 1.000000e-01/1.000000e-01/1.000000e+00

 Standard Electronic Orientation quadrupole field applied
 Nucleus-field energy     =    -0.0000000120 hartrees

 -----------------------------------------------------------------------
  General SCF calculation program by
  Eric Jon Sundstrom, Paul Horn, Yuezhi Mao, Dmitri Zuev, Alec White,
  David Stuck, Shaama M.S., Shane Yost, Joonho Lee, David Small,
  Daniel Levine, Susi Lehtola, Hugh Burton, Evgeny Epifanovsky
 -----------------------------------------------------------------------
 Exchange:     0.1957 Hartree-Fock + 1.0000 wB97X-D3 + LR-HF
 Correlation:  1.0000 wB97X-D3
 Using SG-2 standard quadrature grid
 Dispersion:   Grimme D3
 using 16 threads for integral computing
 -------------------------------------------------------
 OpenMP Integral computing Module                
 Release: version 1.0, May 2013, Q-Chem Inc. Pittsburgh 
 -------------------------------------------------------
 using 16 threads for integral computing
 -------------------------------------------------------
 OpenMP Integral computing Module                
 Release: version 1.0, May 2013, Q-Chem Inc. Pittsburgh 
 -------------------------------------------------------
 -------------------------------------------------------
 OpenMP BLAS3 based DFT computing Module                
 Release: version 1.0, May 2013, Q-Chem Inc. Pittsburgh 
 -------------------------------------------------------
 A unrestricted SCF calculation will be
 performed using DIIS
 SCF converges when DIIS error is below 1.0e-08
 ---------------------------------------
  Cycle       Energy         DIIS error
 ---------------------------------------
    1    -269.4663023080      2.04e-09  
    2    -269.4663023080      1.42e-09  Convergence criterion met
 ---------------------------------------
 SCF time:   CPU 59.92s  wall 4.00s 
<S^2> =          0.000000000
 SCF   energy in the final basis set =     -269.4663023080
 Total energy in the final basis set =     -269.4663023080
 No wavefunction analysis requested
 Calculating analytic gradient of the SCF energy
 Gradient of SCF Energy
            1           2           3           4           5           6
    1   0.0031107   0.0013974   0.0128537  -0.0062558  -0.0012765   0.0006771
    2  -0.0007970  -0.0071601  -0.0036148  -0.0012410   0.0142816   0.0054025
    3  -0.0041629   0.0162046   0.0069400  -0.0027959  -0.0023059   0.0012419
            7           8           9          10          11          12
    1   0.0028125   0.0013865   0.0019968   0.0013215  -0.0042860  -0.0046484
    2  -0.0027551  -0.0005542  -0.0014782  -0.0043437  -0.0014164  -0.0028739
    3   0.0021368  -0.0047577  -0.0036096   0.0020211  -0.0042741   0.0031275
           13
    1  -0.0090895
    2   0.0065501
    3  -0.0097657
 Max gradient component =       1.620E-02
 RMS gradient           =       5.658E-03
 Gradient time:  CPU 72.80 s  wall 5.34 s
 Geometry Optimization Parameters
   NAtoms,    NIC,     NZ,  NCons,   NDum,   NFix, NCnnct, MaxDiis
       13      70       0       0       0       0       0       0

 Cartesian Hessian read from HESS file


** GEOMETRY OPTIMIZATION IN DELOCALIZED INTERNAL COORDINATES **
   Searching for a Transition State

   Optimization Cycle:   1

                       Coordinates (Angstroms)
     ATOM                X               Y               Z
      1  C         1.7204738732    0.8658149733    0.2848455539
      2  O         0.4320353519    0.5112794118    0.7865944814
      3  C        -0.4435431016   -1.0758148161   -0.2719464001
      4  C        -1.6814764916   -0.3282449511   -0.4260210607
      5  O        -1.5877353867    0.9235852211   -0.7638854176
      6  H         1.9224420851    1.9286769712    0.4905931028
      7  H         2.4668490972    0.2516790342    0.8032040244
      8  H         1.8093528057    0.7010799898   -0.8026128470
      9  H         0.3246488139   -0.9248355878   -1.0281744479
     10  H        -0.3983594246   -1.9994537791    0.3124691618
     11  H        -1.7666522713   -1.2017434560   -1.3042099927
     12  H        -2.5106594604   -0.6588785775    0.2393057666
     13  H        -0.2839468907    0.9995905661    0.2074570751
   Point Group: c1    Number of degrees of freedom:    33


   Energy is   -269.466302308


 Attempting to Generate Delocalized Internal Coordinates

 Transforming Cartesian Hessian to Internal Coordinates
 Hessian Transformation does not Include Derivative of B-matrix

 33 Hessian modes will be used to form the next step
  Hessian Eigenvalues:
    -0.285864    0.006164    0.008149    0.016103    0.020670    0.035372
     0.055873    0.072007    0.088107    0.090428    0.091367    0.097953
     0.110149    0.118554    0.132969    0.135985    0.164699    0.169213
     0.175567    0.196172    0.198530    0.271500    0.293579    0.315672
     0.321182    0.330363    0.346856    0.351691    0.357131    0.367512
     0.392185    0.537321    0.687842

 Transition State Search - Taking P-RFO Step
 Searching for Lamda that Maximizes Along the Lowest mode
 Value Taken    Lamda =   0.00025279
 Searching for Lamda that Minimizes Along All other modes
 Value Taken    Lamda =  -0.00318224
 Step Taken.  Stepsize is  0.163847

                             Maximum     Tolerance    Cnvgd?
         Gradient           0.019164      0.000100      NO
         Displacement       0.073641      0.000400      NO
         Energy change     *********      0.000000      NO


 New Cartesian Coordinates Obtained by Inverse Iteration

 Displacement from previous Coordinates is:  0.263626
 Adding empirical dispersion correction 
 ----------------------------------------------------------------
 Doing -D3(0) with
 s6  =   1.00000
 s8  =   1.00000
 rs6 =   1.28100
 rs8 =   1.09400
 -D3 energy without 3body term =     -0.0027111971 hartrees
 ----------------------------------------------------------------
             Standard Nuclear Orientation (Angstroms)
    I     Atom           X                Y                Z
 ----------------------------------------------------------------
    1      C       1.7075307830     0.8519998274     0.2892354477
    2      O       0.4225961728     0.4720667116     0.7387551593
    3      C      -0.4380050765    -1.0467067764    -0.2784357037
    4      C      -1.6723246434    -0.3329959203    -0.4284064153
    5      O      -1.5772391027     0.9044924058    -0.7948900293
    6      H       1.8898268327     1.9045801245     0.5177813238
    7      H       2.4472984734     0.2424940771     0.8074928019
    8      H       1.8175597453     0.7115080835    -0.7920144565
    9      H       0.3063456841    -0.8981266161    -1.0512353548
   10      H      -0.3732609725    -1.9488634238     0.3241212428
   11      H      -1.7755121013    -1.2116403501    -1.2703121341
   12      H      -2.4748277368    -0.6337598311     0.2672286662
   13      H      -0.2765590580     0.9776866878     0.1982984521
 ----------------------------------------------------------------
 Nuclear Repulsion Energy =   191.1835162028 hartrees
 There are       21 alpha and       21 beta electrons
 Applying Cartesian multipole field
    Component          Value
    ---------          -----
     (2,0,0)        1.00000E-11
     (0,2,0)        2.00000E-11
     (0,0,2)       -3.00000E-10
 Nucleus-field energy     =    -0.0000000120 hartrees
 Requested basis set is def2-TZVP
 There are 87 shells and 203 basis functions
 A cutoff of  1.0D-11 yielded   3601 shell pairs
 There are     20043 function pairs (     25438 Cartesian)
 Smallest overlap matrix eigenvalue = 3.47E-04

 -----------------------------------------------------------------------
  General SCF calculation program by
  Eric Jon Sundstrom, Paul Horn, Yuezhi Mao, Dmitri Zuev, Alec White,
  David Stuck, Shaama M.S., Shane Yost, Joonho Lee, David Small,
  Daniel Levine, Susi Lehtola, Hugh Burton, Evgeny Epifanovsky
 -----------------------------------------------------------------------
 Exchange:     0.1957 Hartree-Fock + 1.0000 wB97X-D3 + LR-HF
 Correlation:  1.0000 wB97X-D3
 Using SG-2 standard quadrature grid
 Dispersion:   Grimme D3
 using 16 threads for integral computing
 -------------------------------------------------------
 OpenMP Integral computing Module                
 Release: version 1.0, May 2013, Q-Chem Inc. Pittsburgh 
 -------------------------------------------------------
 using 16 threads for integral computing
 -------------------------------------------------------
 OpenMP Integral computing Module                
 Release: version 1.0, May 2013, Q-Chem Inc. Pittsburgh 
 -------------------------------------------------------
 -------------------------------------------------------
 OpenMP BLAS3 based DFT computing Module                
 Release: version 1.0, May 2013, Q-Chem Inc. Pittsburgh 
 -------------------------------------------------------
 A unrestricted SCF calculation will be
 performed using DIIS
 SCF converges when DIIS error is below 1.0e-08
 ---------------------------------------
  Cycle       Energy         DIIS error
 ---------------------------------------
    1    -269.4652070663      2.98e-04  
    2    -269.4674935343      1.05e-04  
    3    -269.4676470159      1.09e-04  
    4    -269.4678289227      1.64e-05  
    5    -269.4678432248      9.40e-06  
    6    -269.4678479312      2.77e-06  
    7    -269.4678487753      1.64e-06  
    8    -269.4678489445      7.39e-07  
    9    -269.4678489764      2.33e-07  
   10    -269.4678489806      1.00e-07  
   11    -269.4678489816      3.03e-08  
   12    -269.4678489817      1.12e-08  
   13    -269.4678489817      5.34e-09  Convergence criterion met
 ---------------------------------------
 SCF time:   CPU 388.87s  wall 29.00s 
<S^2> =          0.000000000
 SCF   energy in the final basis set =     -269.4678489817
 Total energy in the final basis set =     -269.4678489817
 No wavefunction analysis requested
 Calculating analytic gradient of the SCF energy
 Gradient of SCF Energy
            1           2           3           4           5           6
    1  -0.0004015  -0.0000818  -0.0013665   0.0009544  -0.0001106   0.0001098
    2  -0.0000578   0.0015489  -0.0001025   0.0000666  -0.0001584  -0.0000294
    3  -0.0000508   0.0004491  -0.0003837   0.0000770   0.0006637  -0.0000834
            7           8           9          10          11          12
    1  -0.0000488  -0.0001540   0.0000757   0.0000364   0.0002170  -0.0000822
    2   0.0000395  -0.0000041   0.0000478   0.0000801   0.0001693  -0.0002327
    3  -0.0000750   0.0000392   0.0001218   0.0000370   0.0000041  -0.0004030
           13
    1   0.0008522
    2  -0.0013673
    3  -0.0003960
 Max gradient component =       1.549E-03
 RMS gradient           =       4.893E-04
 Gradient time:  CPU 73.22 s  wall 5.78 s
 Geometry Optimization Parameters
   NAtoms,    NIC,     NZ,  NCons,   NDum,   NFix, NCnnct, MaxDiis
       13      70       0       0       0       0       0       0

 Cartesian Hessian Update
 Hessian Updated using Powell/Murtagh-Sargent Update
  Mixing factors:     0.955632 Powell
                      0.044368 Murtagh-Sargent


** GEOMETRY OPTIMIZATION IN DELOCALIZED INTERNAL COORDINATES **
   Searching for a Transition State

   Optimization Cycle:   2

                       Coordinates (Angstroms)
     ATOM                X               Y               Z
      1  C         1.7075307830    0.8519998274    0.2892354477
      2  O         0.4225961728    0.4720667116    0.7387551593
      3  C        -0.4380050765   -1.0467067764   -0.2784357037
      4  C        -1.6723246434   -0.3329959203   -0.4284064153
      5  O        -1.5772391027    0.9044924058   -0.7948900293
      6  H         1.8898268327    1.9045801245    0.5177813238
      7  H         2.4472984734    0.2424940771    0.8074928019
      8  H         1.8175597453    0.7115080835   -0.7920144565
      9  H         0.3063456841   -0.8981266161   -1.0512353548
     10  H        -0.3732609725   -1.9488634238    0.3241212428
     11  H        -1.7755121013   -1.2116403501   -1.2703121341
     12  H        -2.4748277368   -0.6337598311    0.2672286662
     13  H        -0.2765590580    0.9776866878    0.1982984521
   Point Group: c1    Number of degrees of freedom:    33


   Energy is   -269.467848982

 Hessian Updated using Powell/Murtagh-Sargent Update
  Mixing factors:     0.992555 Powell
                      0.007445 Murtagh-Sargent

 33 Hessian modes will be used to form the next step
  Hessian Eigenvalues:
    -0.293067    0.005748    0.007965    0.015557    0.021076    0.035363
     0.056214    0.071914    0.088082    0.090421    0.091380    0.095995
     0.109831    0.118621    0.133065    0.135268    0.163759    0.170456
     0.174611    0.196584    0.198266    0.274632    0.293912    0.315638
     0.321138    0.330341    0.347068    0.351973    0.357132    0.371419
     0.392023    0.538124    0.685864

 Transition State Search - Taking P-RFO Step
 Searching for Lamda that Maximizes Along the Lowest mode
 Value Taken    Lamda =   0.00002440
 Searching for Lamda that Minimizes Along All other modes
 Value Taken    Lamda =  -0.00016789
 Step Taken.  Stepsize is  0.129735

                             Maximum     Tolerance    Cnvgd?
         Gradient           0.002734      0.000100      NO
         Displacement       0.059567      0.000400      NO
         Energy change     -0.001547      0.000000      NO


 New Cartesian Coordinates Obtained by Inverse Iteration

 Displacement from previous Coordinates is:  0.137057
 Adding empirical dispersion correction 
[...]
 H          0.018  0.007 -0.005   -0.006  0.292  0.548    0.068  0.488  0.137
 H         -0.000 -0.018  0.003    0.395 -0.466  0.188   -0.069 -0.310 -0.038
 H          0.016  0.062  0.056   -0.050  0.039 -0.096    0.024 -0.080  0.069
 H         -0.178 -0.094 -0.111    0.056  0.016 -0.062   -0.140 -0.102 -0.026
 H          0.710 -0.460  0.084   -0.063 -0.007  0.038    0.012  0.090 -0.103
 H         -0.152 -0.077 -0.226    0.034 -0.020  0.086   -0.061  0.033 -0.115
 H          0.187  0.032  0.127    0.045  0.019 -0.123   -0.063 -0.106  0.107
 TransDip  -0.580  0.070 -0.196    0.063  0.010  0.012   -0.160 -0.043 -0.070

 Mode:                 4                      5                      6
 Frequency:       199.21                 277.84                 384.71
 Force Cnst:      0.0558                 0.2269                 0.2077
 Red. Mass:       2.3850                 4.9885                 2.3814
 IR Active:          YES                    YES                    YES
 IR Intens:        4.267                121.622                  5.876
 Raman Active:       YES                    YES                    YES
               X      Y      Z        X      Y      Z        X      Y      Z
 C          0.042  0.182  0.096   -0.024 -0.020  0.035   -0.114 -0.056 -0.005
 O          0.061 -0.112 -0.104   -0.138  0.265 -0.167   -0.098  0.022  0.045
 C         -0.116 -0.107 -0.020   -0.076 -0.204 -0.063    0.055  0.011 -0.157
 C         -0.050  0.034  0.076    0.012 -0.079 -0.010    0.087  0.052  0.185
 O          0.062 -0.010 -0.056    0.219  0.001  0.239    0.088 -0.031 -0.078
 H         -0.138  0.145  0.409    0.243 -0.083  0.154   -0.043 -0.048 -0.091
 H          0.095  0.149 -0.016   -0.221 -0.248  0.060   -0.121 -0.057  0.006
 H          0.133  0.499  0.067    0.108  0.058  0.035   -0.151 -0.135  0.000
 H         -0.183 -0.222 -0.104    0.012 -0.153  0.033   -0.107  0.148 -0.288
 H         -0.141 -0.069  0.039   -0.137 -0.244 -0.110    0.226 -0.017 -0.225
 H         -0.320  0.002  0.177   -0.025  0.117 -0.199   -0.245 -0.063  0.340
 H          0.029  0.217  0.239   -0.088 -0.104 -0.142    0.320  0.223  0.508
 H          0.057 -0.096 -0.081   -0.140  0.050 -0.518   -0.062  0.023  0.003
 TransDip  -0.056 -0.010  0.033   -0.257 -0.144 -0.196   -0.075 -0.019 -0.003

 Mode:                 7                      8                      9
 Frequency:       445.96                 553.63                 845.49
 Force Cnst:      0.3463                 0.3905                 0.5076
 Red. Mass:       2.9555                 2.1627                 1.2052
 IR Active:          YES                    YES                    YES
 IR Intens:       32.002                 26.353                 12.378
 Raman Active:       YES                    YES                    YES
               X      Y      Z        X      Y      Z        X      Y      Z
 C          0.112  0.028 -0.006   -0.025 -0.009  0.000   -0.005  0.001  0.004
 O          0.104  0.148  0.205   -0.024  0.010 -0.006    0.001  0.004  0.019
 C         -0.073 -0.103 -0.105    0.067 -0.155 -0.002   -0.021  0.033 -0.091
 C         -0.113 -0.091 -0.092    0.170  0.062 -0.042   -0.015 -0.014 -0.053
 O         -0.029 -0.038 -0.042   -0.142  0.097 -0.000    0.027 -0.012  0.049
 H          0.231  0.036 -0.130   -0.005 -0.011 -0.005    0.029  0.001 -0.018
 H          0.126  0.015 -0.042   -0.042 -0.019  0.011   -0.008 -0.005  0.002
 H         -0.040 -0.084 -0.006   -0.021 -0.017  0.003   -0.027 -0.029  0.008
 H         -0.070  0.003 -0.085    0.326 -0.567  0.156   -0.077 -0.366 -0.222
 H          0.007 -0.146 -0.170   -0.388 -0.076  0.179    0.104  0.532  0.619
 H         -0.707  0.289 -0.117   -0.168  0.109  0.020   -0.021 -0.299  0.118
 H          0.090  0.071  0.219    0.404  0.054  0.231    0.026  0.015  0.000
 H          0.055  0.041  0.170    0.001  0.037  0.029   -0.003  0.039  0.090
 TransDip   0.034 -0.163 -0.071    0.138 -0.088  0.014   -0.041  0.104  0.013

 Mode:                10                     11                     12
 Frequency:       970.44                1065.88                1082.34
 Force Cnst:      0.8449                 0.8250                 0.9004
 Red. Mass:       1.5227                 1.2325                 1.3045
 IR Active:          YES                    YES                    YES
 IR Intens:       10.135                 75.756                  1.330
 Raman Active:       YES                    YES                    YES
               X      Y      Z        X      Y      Z        X      Y      Z
 C         -0.027 -0.005  0.008   -0.083  0.008 -0.020   -0.013 -0.003  0.007
 O          0.010  0.006 -0.001    0.062  0.004 -0.060    0.011  0.003 -0.001
 C          0.053 -0.163  0.040   -0.029 -0.016  0.015   -0.000  0.026 -0.049
 C         -0.007  0.028  0.027    0.019  0.000 -0.020    0.002  0.017  0.130
 O         -0.040  0.086 -0.030    0.017 -0.021  0.005    0.004 -0.056 -0.038
 H          0.012 -0.006 -0.007    0.086 -0.044  0.099   -0.007 -0.001 -0.004
 H         -0.028 -0.013  0.002   -0.346 -0.127  0.192   -0.005 -0.001 -0.001
 H         -0.035 -0.026  0.010    0.208 -0.037  0.017   -0.029 -0.009  0.006
 H         -0.284  0.023 -0.251    0.031  0.171  0.114    0.036 -0.254 -0.065
 H          0.784 -0.017  0.173    0.057 -0.002  0.029   -0.143  0.177  0.194
 H          0.048  0.132 -0.094   -0.109  0.035 -0.024    0.116  0.685 -0.484
 H         -0.258  0.116 -0.236    0.045  0.005  0.026   -0.105 -0.269 -0.102
 H          0.020 -0.013 -0.007   -0.125  0.368  0.729    0.015  0.050  0.042
 TransDip  -0.029 -0.097  0.013   -0.015  0.116  0.253   -0.016  0.030 -0.014

 Mode:                13                     14                     15
 Frequency:      1101.48                1148.58                1195.73
 Force Cnst:      2.2147                 1.0072                 1.0713
 Red. Mass:       3.0982                 1.2958                 1.2718
 IR Active:          YES                    YES                    YES
 IR Intens:      108.028                  1.341                 12.040
 Raman Active:       YES                    YES                    YES
               X      Y      Z        X      Y      Z        X      Y      Z
 C         -0.254 -0.121  0.128    0.058 -0.017 -0.023   -0.014  0.113  0.068
 O          0.240  0.076 -0.066   -0.059 -0.021  0.004    0.008 -0.057 -0.031
 C         -0.014  0.013 -0.014   -0.101 -0.046 -0.029   -0.009 -0.007 -0.009
 C         -0.027 -0.013 -0.028    0.058 -0.008  0.001   -0.015 -0.001  0.004
 O         -0.008  0.000  0.004   -0.003  0.007 -0.003    0.002  0.009 -0.004
 H         -0.394 -0.053 -0.010   -0.129 -0.000  0.024    0.635  0.095 -0.307
 H          0.128  0.106 -0.123    0.163  0.098 -0.037   -0.175 -0.266 -0.136
 H         -0.409  0.023  0.069    0.099  0.112 -0.038   -0.343 -0.338  0.084
 H          0.199  0.195  0.220    0.212  0.581  0.406    0.135  0.137  0.158
 H          0.037  0.101  0.104    0.250  0.244  0.335    0.035  0.050  0.068
 H         -0.111  0.006  0.001   -0.051  0.108 -0.133    0.004  0.017 -0.020
 H          0.086  0.012  0.107    0.215 -0.096  0.133    0.049 -0.033  0.060
 H          0.290 -0.167 -0.413    0.045  0.016 -0.087   -0.037 -0.155 -0.095
 TransDip  -0.291 -0.158 -0.031    0.020 -0.030 -0.010   -0.092 -0.057 -0.027

 Mode:                16                     17                     18
 Frequency:      1208.63                1238.76                1287.56
 Force Cnst:      1.1607                 1.2946                 1.5765
 Red. Mass:       1.3486                 1.4319                 1.6140
 IR Active:          YES                    YES                    YES
 IR Intens:       79.379                 48.556                 25.130
 Raman Active:       YES                    YES                    YES
               X      Y      Z        X      Y      Z        X      Y      Z
 C         -0.052  0.026 -0.095    0.034 -0.020  0.021   -0.017  0.020 -0.017
 O          0.039 -0.009  0.062   -0.035 -0.001 -0.026    0.009 -0.011  0.018
 C          0.043 -0.007 -0.037    0.105 -0.031 -0.067   -0.018  0.025 -0.003
 C         -0.075  0.004  0.029   -0.104  0.054  0.056    0.165  0.065 -0.018
 O          0.003  0.028 -0.015    0.014 -0.013 -0.002   -0.042 -0.108  0.043
 H          0.083 -0.065  0.231   -0.073  0.015 -0.071    0.062 -0.003  0.033
 H         -0.428 -0.116  0.260    0.183  0.072 -0.079   -0.119 -0.054  0.037
 H          0.494  0.033 -0.031   -0.106  0.048 -0.008    0.069 -0.037  0.001
 H          0.267 -0.010  0.171    0.572 -0.082  0.353   -0.116  0.204 -0.051
 H          0.024  0.061  0.070    0.045 -0.001  0.006   -0.138  0.078  0.060
 H          0.033 -0.033  0.026   -0.296 -0.134  0.169   -0.471  0.104  0.069
 H         -0.045 -0.026  0.045   -0.404  0.078 -0.247   -0.375  0.422 -0.459
 H         -0.072 -0.424 -0.308    0.003  0.187  0.182    0.074 -0.134 -0.208
 TransDip  -0.208 -0.147 -0.129    0.049  0.184  0.117   -0.051  0.114 -0.101

 Mode:                19                     20                     21
 Frequency:      1337.33                1436.73                1480.53
 Force Cnst:      1.5729                 1.6455                 1.4740
 Red. Mass:       1.4927                 1.3530                 1.1413
 IR Active:          YES                    YES                    YES
 IR Intens:       94.360                 50.446                 17.432
 Raman Active:       YES                    YES                    YES
               X      Y      Z        X      Y      Z        X      Y      Z
 C          0.006  0.000 -0.004    0.003  0.020 -0.020   -0.102 -0.021  0.014
 O         -0.017 -0.006 -0.003   -0.006 -0.011  0.010   -0.011 -0.003  0.002
 C          0.028 -0.011  0.008   -0.078  0.045  0.031   -0.017  0.017  0.007
 C         -0.074  0.103 -0.076    0.018  0.118 -0.040    0.011  0.007 -0.004
 O         -0.008 -0.112  0.051    0.008 -0.060  0.018   -0.002 -0.007 -0.000
 H         -0.010  0.001  0.004   -0.043 -0.004  0.110    0.519 -0.105  0.003
 H          0.010  0.006 -0.005   -0.106 -0.035  0.061    0.459  0.361 -0.284
 H          0.003  0.003 -0.004   -0.070 -0.099 -0.007    0.498  0.015  0.074
 H          0.108 -0.086  0.057    0.116 -0.391  0.118    0.016 -0.103  0.013
 H          0.184 -0.030 -0.025    0.518 -0.103 -0.248    0.087 -0.020 -0.060
 H          0.374  0.148 -0.309   -0.208 -0.023  0.072   -0.020  0.011  0.014
 H          0.133  0.695  0.375    0.185 -0.480 -0.063    0.011 -0.023 -0.015
 H          0.067  0.023 -0.009    0.249  0.087 -0.132   -0.081 -0.016  0.027
 TransDip   0.074  0.302  0.002    0.147  0.165 -0.054   -0.098 -0.072 -0.056

 Mode:                22                     23                     24
 Frequency:      1500.38                1510.77                1515.48
 Force Cnst:      1.4342                 1.5868                 2.0514
 Red. Mass:       1.0813                 1.1800                 1.5160
 IR Active:          YES                    YES                    YES
 IR Intens:        4.586                 61.574                 74.071
 Raman Active:       YES                    YES                    YES
               X      Y      Z        X      Y      Z        X      Y      Z
 C          0.008 -0.051 -0.021   -0.008  0.019 -0.054   -0.011 -0.036  0.028
 O          0.005 -0.007 -0.006   -0.010 -0.006 -0.005   -0.006 -0.003  0.005
 C         -0.033  0.022 -0.005    0.067 -0.046  0.008    0.086 -0.060  0.028
 C          0.024 -0.032  0.010   -0.045  0.052 -0.016   -0.061  0.148 -0.046
 O         -0.004  0.010 -0.003    0.007 -0.015  0.006    0.009 -0.055  0.013
 H          0.380 -0.075 -0.065    0.181 -0.147  0.562    0.099  0.069 -0.468
 H         -0.064  0.374  0.541    0.108  0.334  0.165   -0.074 -0.053  0.068
 H         -0.384  0.434 -0.119   -0.266 -0.385 -0.005    0.125  0.493 -0.040
 H          0.060 -0.099  0.061   -0.117  0.252 -0.109   -0.206  0.284 -0.188
 H          0.096 -0.003 -0.061   -0.228  0.015  0.139   -0.218  0.001  0.164
 H          0.021  0.010 -0.010   -0.033 -0.016  0.010   -0.101 -0.011  0.058
 H         -0.033  0.101 -0.012    0.054 -0.163  0.028    0.158 -0.415  0.016
 H         -0.076 -0.069  0.009    0.182  0.128 -0.055    0.008 -0.059 -0.018
 TransDip  -0.049 -0.048  0.001    0.125  0.174  0.131   -0.014  0.273 -0.032

 Mode:                25                     26                     27
 Frequency:      1574.89                2134.53                2855.55
 Force Cnst:      1.6662                 2.8344                 5.2111
 Red. Mass:       1.1402                 1.0559                 1.0847
 IR Active:          YES                    YES                    YES
 IR Intens:       96.139                129.630                519.137
 Raman Active:       YES                    YES                    YES
               X      Y      Z        X      Y      Z        X      Y      Z
 C         -0.040  0.015 -0.013    0.001  0.000 -0.001    0.004 -0.002 -0.001
 O         -0.021 -0.039  0.027   -0.001 -0.002  0.001   -0.048  0.033 -0.034
 C          0.011  0.002 -0.003   -0.012 -0.013 -0.021    0.005  0.010  0.006
 C         -0.010 -0.070  0.012   -0.013 -0.020 -0.052    0.009 -0.016 -0.010
 O          0.003  0.029  0.001   -0.002 -0.014  0.007    0.006  0.009  0.003
 H          0.123  0.027 -0.155   -0.005  0.002  0.005   -0.004 -0.049 -0.014
 H         -0.140 -0.044  0.032   -0.001 -0.003  0.003   -0.024  0.045 -0.044
 H          0.150  0.151 -0.016   -0.002 -0.004 -0.004    0.003  0.013  0.069
 H          0.001 -0.000 -0.013    0.039  0.012  0.016   -0.001 -0.006 -0.008
 H         -0.070 -0.007 -0.001    0.018  0.020  0.029   -0.004  0.009 -0.005
 H          0.012 -0.013 -0.038    0.284  0.570  0.762   -0.025  0.051  0.014
 H         -0.055  0.098  0.024   -0.024 -0.005 -0.044   -0.118 -0.029  0.109
 H          0.712  0.552 -0.224    0.005  0.048 -0.011    0.615 -0.614  0.444
 TransDip   0.298  0.051  0.085   -0.084 -0.309 -0.174    0.675 -0.055  0.271

 Mode:                28                     29                     30
 Frequency:      2962.21                3033.93                3106.44
 Force Cnst:      5.5910                 5.6303                 6.2482
 Red. Mass:       1.0815                 1.0382                 1.0990
 IR Active:          YES                    YES                    YES
 IR Intens:       61.247                 38.312                 29.473
 Raman Active:       YES                    YES                    YES
               X      Y      Z        X      Y      Z        X      Y      Z
 C          0.001 -0.000 -0.001    0.030  0.010 -0.041   -0.019 -0.056 -0.069
 O         -0.007  0.005 -0.005    0.007 -0.003  0.003   -0.001  0.001 -0.000
 C          0.003  0.003 -0.001   -0.000 -0.002 -0.002    0.002 -0.001 -0.001
 C         -0.060 -0.019  0.050    0.002  0.002 -0.001   -0.000 -0.000  0.000
 O          0.001 -0.001  0.001   -0.000 -0.001 -0.000    0.000  0.000  0.000
 H         -0.002 -0.018 -0.005   -0.064 -0.434 -0.109    0.104  0.762  0.157
 H         -0.011  0.013 -0.012   -0.242  0.200 -0.187    0.185 -0.171  0.125
 H         -0.001  0.005  0.032   -0.085  0.113  0.793   -0.055  0.067  0.536
 H         -0.006 -0.001  0.009   -0.009  0.002  0.017   -0.018 -0.002  0.024
 H         -0.009 -0.026  0.016    0.000  0.006 -0.004   -0.002  0.018 -0.013
 H         -0.023  0.015  0.016    0.008 -0.005  0.001   -0.000  0.000  0.001
 H          0.708  0.237 -0.638   -0.018 -0.006  0.014   -0.001  0.000  0.000
 H          0.100 -0.091  0.076   -0.063  0.062 -0.048    0.012 -0.008  0.009
 TransDip  -0.060 -0.127  0.207    0.139  0.068 -0.124   -0.052 -0.105 -0.128

 Mode:                31                     32                     33
 Frequency:      3148.25                3149.99                3269.05
 Force Cnst:      6.4266                 6.1901                 7.0641
 Red. Mass:       1.1005                 1.0588                 1.1219
 IR Active:          YES                    YES                    YES
 IR Intens:       13.292                  6.305                  2.392
 Raman Active:       YES                    YES                    YES
               X      Y      Z        X      Y      Z        X      Y      Z
 C         -0.041  0.070 -0.039    0.012 -0.018  0.015   -0.000 -0.000  0.001
 O         -0.001  0.000 -0.001   -0.000  0.000  0.000   -0.000  0.000  0.001
 C          0.013 -0.013 -0.001    0.044 -0.045 -0.002    0.040  0.054 -0.077
 C         -0.002  0.000 -0.000   -0.005  0.002 -0.000    0.002  0.001 -0.002
 O          0.000  0.000  0.000    0.000  0.000 -0.000   -0.000 -0.000  0.000
 H         -0.062 -0.390 -0.102    0.015  0.092  0.025   -0.001 -0.002 -0.001
 H          0.563 -0.473  0.426   -0.165  0.138 -0.124   -0.000  0.001 -0.001
 H         -0.020  0.036  0.134    0.009 -0.015 -0.072    0.000 -0.002 -0.012
 H         -0.126 -0.030  0.134   -0.418 -0.100  0.446   -0.520 -0.108  0.547
 H         -0.014  0.178 -0.124   -0.045  0.599 -0.417    0.046 -0.526  0.358
 H         -0.001  0.003  0.002    0.002  0.006  0.007    0.002  0.000  0.007
 H          0.004  0.001 -0.003    0.011  0.001 -0.006   -0.022 -0.004  0.018
 H          0.024 -0.011  0.009   -0.003  0.006 -0.000    0.001 -0.005 -0.002
 TransDip  -0.053  0.086 -0.058    0.057 -0.051  0.026    0.029  0.032 -0.025

 STANDARD THERMODYNAMIC QUANTITIES AT   298.15 K  AND     1.00 ATM

   This Molecule has  1 Imaginary Frequencies
   Zero point vibrational energy:       67.613 kcal/mol

   Atom    1 Element C  Has Mass   12.00000
   Atom    2 Element O  Has Mass   15.99491
   Atom    3 Element C  Has Mass   12.00000
   Atom    4 Element C  Has Mass   12.00000
   Atom    5 Element O  Has Mass   15.99491
   Atom    6 Element H  Has Mass    1.00783
   Atom    7 Element H  Has Mass    1.00783
   Atom    8 Element H  Has Mass    1.00783
   Atom    9 Element H  Has Mass    1.00783
   Atom   10 Element H  Has Mass    1.00783
   Atom   11 Element H  Has Mass    1.00783
   Atom   12 Element H  Has Mass    1.00783
   Atom   13 Element H  Has Mass    1.00783
   Molecular Mass:    76.052460 amu
   Principal axes and moments of inertia in amu*Bohr^2:
                             1           2           3
    Eigenvalues --      195.13284   585.73480   696.36034
          X               0.91850    -0.19221    -0.34557
          Y               0.22914     0.97094     0.06899
          Z               0.32227    -0.14255     0.93585
   Rotational Symmetry Number is   1
   The Molecule is an Asymmetric Top
   Translational Enthalpy:        0.889 kcal/mol
   Rotational Enthalpy:           0.889 kcal/mol
   Vibrational Enthalpy:         69.765 kcal/mol
   gas constant (RT):             0.592 kcal/mol
   Translational Entropy:        38.902  cal/mol.K
   Rotational Entropy:           25.879  cal/mol.K
   Vibrational Entropy:          12.533  cal/mol.K

   Total Enthalpy:               72.135 kcal/mol
   Total Entropy:                77.314  cal/mol.K
Archival summary:
1\1\nid00504\FREQ\ProcedureUnspecified\BasisUnspecified\238\cgrambow\WedFeb1300:21:352019WedFeb1300:21:352019\0\\#,FREQ,ProcedureUnspecified,BasisUnspecified,\\0,1\O\H,1,1.01516\C,1,1.41428,2,109.108\H,3,1.08958,1,108.232,2,-177.262,0\H,3,1.09233,1,110.072,2,63.618,0\H,3,1.09574,1,111.788,2,-56.8838,0\O,2,1.66881,1,146.078,3,122.617,0\C,7,1.29309,2,85.3827,1,16.69,0\H,8,1.10428,7,119.542,2,104.982,0\H,8,1.22402,7,120.034,2,-130.706,0\C,8,1.43455,7,116.369,2,-40.355,0\H,11,1.08341,8,116.565,7,-42.7612,0\H,11,1.08678,8,121.442,7,160.038,0\\\@

 Total job time:  1426.82s(wall), 4781.16s(cpu) 
 Wed Feb 13 00:21:35 2019

        *************************************************************
        *                                                           *
        *  Thank you very much for using Q-Chem.  Have a nice day.  *
        *                                                           *
        *************************************************************


