
Running Job 1 of 2 prod_optfreq0308.in
qchem prod_optfreq0308.in_10491.0 /tmp/qchem10491/ 1
/global/common/cori/software/qchem/5.1/exe/qcprog.exe prod_optfreq0308.in_10491.0 /tmp/qchem10491/
Check license passed

                  Welcome to Q-Chem
     A Quantum Leap Into The Future Of Chemistry


 Q-Chem 5.1, Q-Chem, Inc., Pleasanton, CA (2018)

 Yihan Shao,  Zhengting Gan,  E. Epifanovsky,  A. T. B. Gilbert,  M. Wormit,  
 J. Kussmann,  A. W. Lange,  A. Behn,  Jia Deng,  Xintian Feng,  D. Ghosh,  
 M. Goldey,  P. R. Horn,  L. D. Jacobson,  I. Kaliman,  T. Kus,  A. Landau,  
 Jie Liu,  E. I. Proynov,  R. M. Richard,  R. P. Steele,  E. J. Sundstrom,  
 H. L. Woodcock III,  P. M. Zimmerman,  D. Zuev,  B. Albrecht,  E. Alguire,  
 S. A. Baeppler,  D. Barton,  Z. Benda,  Y. A. Bernard,  E. J. Berquist,  
 K. B. Bravaya,  H. Burton,  D. Casanova,  Chun-Min Chang,  Yunqing Chen,  
 A. Chien,  K. D. Closser,  M. P. Coons,  S. Coriani,  S. Dasgupta,  
 A. L. Dempwolff,  M. Diedenhofen,  Hainam Do,  R. G. Edgar,  Po-Tung Fang,  
 S. Faraji,  S. Fatehi,  Qingguo Feng,  K. D. Fenk,  J. Fosso-Tande,  
 Qinghui Ge,  A. Ghysels,  G. Gidofalvi,  J. Gomes,  J. Gonthier,  A. Gunina,  
 D. Hait,  M. W. D. Hanson-Heine,  P. H. P. Harbach,  A. W. Hauser,  
 J. E. Herr,  E. G. Hohenstein,  Z. C. Holden,  Kerwin Hui,  B. C. Huynh,  
 T.-C. Jagau,  Hyunjun Ji,  B. Kaduk,  K. Khistyaev,  Jaehoon Kim,  
 P. Klunzinger,  K. Koh,  D. Kosenkov,  L. Koulias,  T. Kowalczyk,  
 C. M. Krauter,  A. Kunitsa,  Ka Un Lao,  A. Laurent,  K. V. Lawler,  
 Joonho Lee,  D. Lefrancois,  S. Lehtola,  D. S. Levine,  Yi-Pei Li,  
 You-Sheng Lin,  Fenglai Liu,  E. Livshits,  A. Luenser,  P. Manohar,  
 E. Mansoor,  S. F. Manzer,  Shan-Ping Mao,  Yuezhi Mao,  N. Mardirossian,  
 A. V. Marenich,  T. Markovich,  L. A. Martinez-Martinez,  S. A. Maurer,  
 N. J. Mayhall,  S. C. McKenzie,  J.-M. Mewes,  A. F. Morrison,  
 J. W. Mullinax,  K. Nanda,  T. S. Nguyen-Beck,  R. Olivares-Amaya,  
 J. A. Parkhill,  T. M. Perrine,  F. Plasser,  P. Pokhilko,  S. Prager,  
 A. Prociuk,  E. Ramos,  D. R. Rehn,  F. Rob,  M. Schneider,  N. Sergueev,  
 S. M. Sharada,  S. Sharma,  D. W. Small,  T. Stauch,  T. Stein,  
 Yu-Chuan Su,  A. J. W. Thom,  A. Tkatchenko,  T. Tsuchimochi,  N. M. Tubman,  
 L. Vogt,  M. L. Vidal,  O. Vydrov,  M. A. Watson,  J. Wenzel,  
 M. de Wergifosse,  T. A. Wesolowski,  A. White,  J. Witte,  A. Yamada,  
 Jun Yang,  K. Yao,  S. Yeganeh,  S. R. Yost,  Zhi-Qiang You,  A. Zech,  
 Igor Ying Zhang,  Xing Zhang,  Yan Zhao,  Ying Zhu,  B. R. Brooks,  
 G. K. L. Chan,  C. J. Cramer,  M. S. Gordon,  W. J. Hehre,  A. Klamt,  
 M. W. Schmidt,  C. D. Sherrill,  D. G. Truhlar,  A. Aspuru-Guzik,  R. Baer,  
 A. T. Bell,  N. A. Besley,  Jeng-Da Chai,  R. A. DiStasio Jr.,  A. Dreuw,  
 B. D. Dunietz,  T. R. Furlani,  Chao-Ping Hsu,  Yousung Jung,  Jing Kong,  
 D. S. Lambrecht,  WanZhen Liang,  C. Ochsenfeld,  V. A. Rassolov,  
 L. V. Slipchenko,  J. E. Subotnik,  T. Van Voorhis,  J. M. Herbert,  
 A. I. Krylov,  P. M. W. Gill,  M. Head-Gordon

 Contributors to earlier versions of Q-Chem not listed above: 
 R. D. Adamson,  B. Austin,  J. Baker,  G. J. O. Beran,  K. Brandhorst,  
 S. T. Brown,  E. F. C. Byrd,  A. K. Chakraborty,  C.-L. Cheng,  
 Siu Hung Chien,  D. M. Chipman,  D. L. Crittenden,  H. Dachsel,  
 R. J. Doerksen,  A. D. Dutoi,  L. Fusti-Molnar,  W. A. Goddard III,  
 A. Golubeva-Zadorozhnaya,  S. R. Gwaltney,  G. Hawkins,  A. Heyden,  
 S. Hirata,  G. Kedziora,  F. J. Keil,  C. Kelley,  Jihan Kim,  R. A. King,  
 R. Z. Khaliullin,  P. P. Korambath,  W. Kurlancheek,  A. M. Lee,  M. S. Lee,  
 S. V. Levchenko,  Ching Yeh Lin,  D. Liotard,  R. C. Lochan,  I. Lotan,  
 P. E. Maslen,  N. Nair,  D. P. O'Neill,  D. Neuhauser,  E. Neuscamman,  
 C. M. Oana,  R. Olson,  B. Peters,  R. Peverati,  P. A. Pieniazek,  
 Y. M. Rhee,  J. Ritchie,  M. A. Rohrdanz,  E. Rosta,  N. J. Russ,  
 H. F. Schaefer III,  N. E. Schultz,  N. Shenvi,  A. C. Simmonett,  A. Sodt,  
 D. Stuck,  K. S. Thanthiriwatte,  V. Vanovschi,  Tao Wang,  A. Warshel,  
 C. F. Williams,  Q. Wu,  X. Xu,  W. Zhang

 Please cite Q-Chem as follows:
 Y. Shao et al., Mol. Phys. 113, 184-215 (2015)
 DOI: 10.1080/00268976.2014.952696

 Q-Chem 5.1.0 for Intel X86 EM64T Linux

 Parts of Q-Chem use Armadillo 8.300.2 (Tropical Shenanigans).
 http://arma.sourceforge.net/

 Q-Chem begins on Tue Feb 12 23:20:16 2019  

Host: cori07
0

     Scratch files written to /tmp/qchem10491//
 Jun2518 |scratch|qcdevops|jenkins|workspace|build_RNUM -1
Processing $rem in /global/common/cori/software/qchem/5.1/config/preferences.
 MEM_TOTAL  96000 

Checking the input file for inconsistencies... 	...done.

--------------------------------------------------------------
User input:
--------------------------------------------------------------
$molecule
0 1
C   2.3409028910   0.4591120894   0.2838415551
O   0.5840584409   0.4292287063   0.5506279185
C   0.0098598891  -0.6899690062  -0.1779968866
C  -1.4477969454  -0.3725427190  -0.4588701023
O  -1.4364298133   0.8686872681  -1.1738656656
H   2.5141328256   1.1832415692   1.1178033334
H   2.5151532691  -0.5144498762   0.8061585779
H   0.3373525154   1.2075955538   0.0015125956
H   0.5910783585  -0.8190078726  -1.1014831341
H   0.1208001392  -1.5691638695   0.4641888154
H  -1.8896178670  -1.1915400772  -1.0536332190
H  -2.0047487173  -0.2885576184   0.4897700984
H  -2.3371759857   1.2372558523  -1.1646118868
$end

$rem
JOBTYPE                   OPT
METHOD                    wB97X-D3
BASIS                     def2-TZVP
UNRESTRICTED              TRUE
SCF_ALGORITHM             DIIS
MAX_SCF_CYCLES            100
SCF_CONVERGENCE           8
SYM_IGNORE                TRUE
SYMMETRY                  FALSE
GEOM_OPT_MAX_CYCLES       100
GEOM_OPT_TOL_GRADIENT     100
GEOM_OPT_TOL_DISPLACEMENT 400
GEOM_OPT_TOL_ENERGY       33
WAVEFUNCTION_ANALYSIS     FALSE
$end

--------------------------------------------------------------
 Adding empirical dispersion correction 
 ----------------------------------------------------------------
 Doing -D3(0) with
 s6  =   1.00000
 s8  =   1.00000
 rs6 =   1.28100
 rs8 =   1.09400
 -D3 energy without 3body term =     -0.0026460977 hartrees
 ----------------------------------------------------------------
             Standard Nuclear Orientation (Angstroms)
    I     Atom           X                Y                Z
 ----------------------------------------------------------------
    1      C       2.3409028910     0.4591120894     0.2838415551
    2      O       0.5840584409     0.4292287063     0.5506279185
    3      C       0.0098598891    -0.6899690062    -0.1779968866
    4      C      -1.4477969454    -0.3725427190    -0.4588701023
    5      O      -1.4364298133     0.8686872681    -1.1738656656
    6      H       2.5141328256     1.1832415692     1.1178033334
    7      H       2.5151532691    -0.5144498762     0.8061585779
    8      H       0.3373525154     1.2075955538     0.0015125956
    9      H       0.5910783585    -0.8190078726    -1.1014831341
   10      H       0.1208001392    -1.5691638695     0.4641888154
   11      H      -1.8896178670    -1.1915400772    -1.0536332190
   12      H      -2.0047487173    -0.2885576184     0.4897700984
   13      H      -2.3371759857     1.2372558523    -1.1646118868
 ----------------------------------------------------------------
 Nuclear Repulsion Energy =   188.7881451056 hartrees
 There are       21 alpha and       21 beta electrons
 Requested basis set is def2-TZVP
 There are 87 shells and 203 basis functions

 Total QAlloc Memory Limit  96000 MB
 Mega-Array Size       188 MB
 MEM_STATIC part       192 MB
 A cutoff of  1.0D-11 yielded   3561 shell pairs
 There are     19683 function pairs (     24915 Cartesian)
 
 -------------------------------------------------------
 OpenMP Integral Computing Module                       
 Release: version 1.0, May 2013, Q-Chem Inc. Pittsburgh 
 -------------------------------------------------------
 Integral Job Info:
 Integral job number is                      11
 Integral operator is                         1
 short-range coefficients              19572800
 long-range coefficients              100000000
 Omega coefficients                         250
 if combine SR and LR in K                    1
 Integral screening is                        0
 Integral computing path is                   2
 max size of driver memory is            800000
 size of driver memory is                776718
 size of scratch memory is              4473992
 max col of scratch BK array              10000
 max len of scratch array in speh3          662
 max len of scratch index in speh4           32
 max int batch size is                      520
 min int batch size is                       52
 fixed nKL is                                52
 max L of basis functions is                  3
 order of int derivative is                   0
 number of shells is                         87
 number of basis is                         228
 number of cartesian basis is               228
 number of contracted shell pairs          3561
 number of primitive shell pairs           8086
 maxK2 (contraction) of shell pair           36
 max number of K2 of shell pair               1
 max number of CS2 of shell pair            564
 max number of PS2 of shell pair           1002
 mem total for path MDJ                  563348
 -------------------------------------------------------
 Smallest overlap matrix eigenvalue = 4.82E-04

 Scale SEOQF with 1.000000e-01/1.000000e-01/1.000000e+00

 Standard Electronic Orientation quadrupole field applied
 Nucleus-field energy     =    -0.0000000181 hartrees
 Guess from superposition of atomic densities
 Warning:  Energy on first SCF cycle will be non-variational
 SAD guess density has 42.000000 electrons

 -----------------------------------------------------------------------
  General SCF calculation program by
  Eric Jon Sundstrom, Paul Horn, Yuezhi Mao, Dmitri Zuev, Alec White,
  David Stuck, Shaama M.S., Shane Yost, Joonho Lee, David Small,
  Daniel Levine, Susi Lehtola, Hugh Burton, Evgeny Epifanovsky
 -----------------------------------------------------------------------
 Exchange:     0.1957 Hartree-Fock + 1.0000 wB97X-D3 + LR-HF
 Correlation:  1.0000 wB97X-D3
 Using SG-2 standard quadrature grid
 Dispersion:   Grimme D3
 using 16 threads for integral computing
 -------------------------------------------------------
 OpenMP Integral computing Module                
 Release: version 1.0, May 2013, Q-Chem Inc. Pittsburgh 
 -------------------------------------------------------
 using 16 threads for integral computing
 -------------------------------------------------------
 OpenMP Integral computing Module                
 Release: version 1.0, May 2013, Q-Chem Inc. Pittsburgh 
 -------------------------------------------------------
 -------------------------------------------------------
 OpenMP BLAS3 based DFT computing Module                
 Release: version 1.0, May 2013, Q-Chem Inc. Pittsburgh 
 -------------------------------------------------------
 A unrestricted SCF calculation will be
 performed using DIIS
 SCF converges when DIIS error is below 1.0e-08
 ---------------------------------------
  Cycle       Energy         DIIS error
 ---------------------------------------
    1    -270.1099633177      1.76e-02  
    2    -269.3746248693      2.00e-03  
    3    -269.4013627631      1.87e-03  
    4    -269.4491430112      2.56e-04  
    5    -269.4501295157      7.85e-05  
    6    -269.4502605895      2.13e-05  
    7    -269.4502738986      5.11e-06  
    8    -269.4502750604      2.77e-06  
    9    -269.4502752847      1.02e-06  
   10    -269.4502753334      4.16e-07  
   11    -269.4502753408      1.05e-07  
   12    -269.4502753416      2.56e-08  
   13    -269.4502753417      7.61e-09  Convergence criterion met
 ---------------------------------------
 SCF time:   CPU 392.60s  wall 31.00s 
<S^2> =          0.000000000
 SCF   energy in the final basis set =     -269.4502753417
 Total energy in the final basis set =     -269.4502753417
 No wavefunction analysis requested
 Calculating analytic gradient of the SCF energy
 Gradient of SCF Energy
            1           2           3           4           5           6
    1   0.0065303   0.0012728  -0.0014682  -0.0044958   0.0175482  -0.0001336
    2   0.0021226  -0.0026374  -0.0055261  -0.0008519   0.0040327   0.0035847
    3  -0.0132356   0.0185757  -0.0052622   0.0013155  -0.0058534   0.0063490
            7           8           9          10          11          12
    1   0.0002867  -0.0037687   0.0025509   0.0006296  -0.0020706  -0.0025351
    2  -0.0051688   0.0097220  -0.0005719  -0.0027615  -0.0052590  -0.0010562
    3   0.0043188  -0.0094008  -0.0034406   0.0025914  -0.0019557   0.0048389
           13
    1  -0.0143463
    2   0.0043708
    3   0.0011589
 Max gradient component =       1.858E-02
 RMS gradient           =       6.484E-03
 Gradient time:  CPU 78.60 s  wall 6.65 s
 Geometry Optimization Parameters
   NAtoms,    NIC,     NZ,  NCons,   NDum,   NFix, NCnnct, MaxDiis
       13      79       0       0       0       0       0       0


** GEOMETRY OPTIMIZATION IN DELOCALIZED INTERNAL COORDINATES **
   Searching for a Minimum

   Optimization Cycle:   1

                       Coordinates (Angstroms)
     ATOM                X               Y               Z
      1  C         2.3409028910    0.4591120894    0.2838415551
      2  O         0.5840584409    0.4292287063    0.5506279185
      3  C         0.0098598891   -0.6899690062   -0.1779968866
      4  C        -1.4477969454   -0.3725427190   -0.4588701023
      5  O        -1.4364298133    0.8686872681   -1.1738656656
      6  H         2.5141328256    1.1832415692    1.1178033334
      7  H         2.5151532691   -0.5144498762    0.8061585779
      8  H         0.3373525154    1.2075955538    0.0015125956
      9  H         0.5910783585   -0.8190078726   -1.1014831341
     10  H         0.1208001392   -1.5691638695    0.4641888154
     11  H        -1.8896178670   -1.1915400772   -1.0536332190
     12  H        -2.0047487173   -0.2885576184    0.4897700984
     13  H        -2.3371759857    1.2372558523   -1.1646118868
   Point Group: c1    Number of degrees of freedom:    33


   Energy is   -269.450275342


 Attempting to Generate Delocalized Internal Coordinates

 33 Hessian modes will be used to form the next step
  Hessian Eigenvalues:
     0.002000    0.006794    0.008544    0.011349    0.044220    0.048799
     0.054593    0.057525    0.062019    0.080202    0.090425    0.104390
     0.106408    0.123448    0.133842    0.147560    0.160000    0.160000
     0.160000    0.219527    0.219690    0.243869    0.305572    0.317183
     0.317702    0.331999    0.333249    0.338186    0.343100    0.377662
     0.406350    0.506166    0.527125

 Minimum Search - Taking Simple RFO Step
 Searching for Lamda that Minimizes Along All modes
 Value Taken    Lamda =  -0.00281926
 Step Taken.  Stepsize is  0.117102

                             Maximum     Tolerance    Cnvgd?
         Gradient           0.011876      0.000100      NO
         Displacement       0.056477      0.000400      NO
         Energy change     *********      0.000000      NO


 New Cartesian Coordinates Obtained by Inverse Iteration

 Displacement from previous Coordinates is:  0.143120
 Adding empirical dispersion correction 
 ----------------------------------------------------------------
 Doing -D3(0) with
 s6  =   1.00000
 s8  =   1.00000
 rs6 =   1.28100
 rs8 =   1.09400
 -D3 energy without 3body term =     -0.0026220808 hartrees
 ----------------------------------------------------------------
             Standard Nuclear Orientation (Angstroms)
    I     Atom           X                Y                Z
 ----------------------------------------------------------------
    1      C       2.3219982830     0.4447428627     0.2957559197
    2      O       0.5863351408     0.4335422841     0.5382419523
    3      C       0.0149776351    -0.6744580329    -0.1798409567
    4      C      -1.4360657815    -0.3703419458    -0.4539225012
    5      O      -1.4547931746     0.8532753187    -1.1741599668
    6      H       2.5111483326     1.1658750267     1.1132290742
    7      H       2.4909270801    -0.5255886757     0.8024385938
    8      H       0.3516225458     1.2145210333     0.0138089297
    9      H       0.5867854287    -0.8016891782    -1.1015359393
   10      H       0.1295464556    -1.5506106874     0.4559358832
   11      H      -1.8740042959    -1.1843521768    -1.0414839265
   12      H      -1.9876185177    -0.2775063877     0.4872285299
   13      H      -2.3432901319     1.2124805589    -1.1722535923
 ----------------------------------------------------------------
 Nuclear Repulsion Energy =   190.1478833343 hartrees
 There are       21 alpha and       21 beta electrons
 Applying Cartesian multipole field
    Component          Value
    ---------          -----
     (2,0,0)        1.00000E-11
     (0,2,0)        2.00000E-11
     (0,0,2)       -3.00000E-10
 Nucleus-field energy     =    -0.0000000181 hartrees
 Requested basis set is def2-TZVP
 There are 87 shells and 203 basis functions
 A cutoff of  1.0D-11 yielded   3567 shell pairs
 There are     19721 function pairs (     24959 Cartesian)
 Smallest overlap matrix eigenvalue = 4.57E-04
 Guess MOs from SCF MO coefficient file
 Reading MOs from coefficient file
 Reading MOs from coefficient file

 -----------------------------------------------------------------------
  General SCF calculation program by
  Eric Jon Sundstrom, Paul Horn, Yuezhi Mao, Dmitri Zuev, Alec White,
  David Stuck, Shaama M.S., Shane Yost, Joonho Lee, David Small,
  Daniel Levine, Susi Lehtola, Hugh Burton, Evgeny Epifanovsky
 -----------------------------------------------------------------------
 Exchange:     0.1957 Hartree-Fock + 1.0000 wB97X-D3 + LR-HF
 Correlation:  1.0000 wB97X-D3
 Using SG-2 standard quadrature grid
 Dispersion:   Grimme D3
 using 16 threads for integral computing
 -------------------------------------------------------
 OpenMP Integral computing Module                
 Release: version 1.0, May 2013, Q-Chem Inc. Pittsburgh 
 -------------------------------------------------------
 using 16 threads for integral computing
 -------------------------------------------------------
 OpenMP Integral computing Module                
 Release: version 1.0, May 2013, Q-Chem Inc. Pittsburgh 
 -------------------------------------------------------
 -------------------------------------------------------
 OpenMP BLAS3 based DFT computing Module                
 Release: version 1.0, May 2013, Q-Chem Inc. Pittsburgh 
 -------------------------------------------------------
 A unrestricted SCF calculation will be
 performed using DIIS
 SCF converges when DIIS error is below 1.0e-08
 ---------------------------------------
  Cycle       Energy         DIIS error
 ---------------------------------------
    1    -269.5019224539      3.61e-04  
    2    -269.4517987079      9.85e-05  
    3    -269.4518808883      9.26e-05  
    4    -269.4520032305      1.41e-05  
    5    -269.4520069867      4.80e-06  
    6    -269.4520078145      1.81e-06  
    7    -269.4520079861      5.31e-07  
    8    -269.4520080139      2.38e-07  
    9    -269.4520080187      1.01e-07  
   10    -269.4520080194      4.17e-08  
   11    -269.4520080195      1.83e-08  
   12    -269.4520080196      4.55e-09  Convergence criterion met
 ---------------------------------------
 SCF time:   CPU 380.12s  wall 28.00s 
<S^2> =          0.000000000
 SCF   energy in the final basis set =     -269.4520080196
 Total energy in the final basis set =     -269.4520080196
 No wavefunction analysis requested
 Calculating analytic gradient of the SCF energy
 Gradient of SCF Energy
            1           2           3           4           5           6
    1   0.0058949  -0.0045225  -0.0003490  -0.0003000   0.0011635  -0.0003456
    2   0.0007524   0.0008404  -0.0028074  -0.0014738   0.0009984   0.0000246
    3  -0.0045784   0.0052508  -0.0025339   0.0015444  -0.0012116   0.0013434
            7           8           9          10          11          12
    1  -0.0002555  -0.0002854  -0.0000015   0.0000237  -0.0001466   0.0000261
    2  -0.0005133   0.0005825   0.0003710   0.0004469   0.0005966   0.0002555
    3   0.0012761  -0.0014268   0.0003695   0.0003219  -0.0003359  -0.0004355
           13
    1  -0.0009022
    2  -0.0000737
    3   0.0004161
 Max gradient component =       5.895E-03
 RMS gradient           =       1.871E-03
 Gradient time:  CPU 77.92 s  wall 6.26 s
 Geometry Optimization Parameters
   NAtoms,    NIC,     NZ,  NCons,   NDum,   NFix, NCnnct, MaxDiis
       13      79       0       0       0       0       0       0

 Cartesian Hessian Update
 Hessian Updated using BFGS Update


** GEOMETRY OPTIMIZATION IN DELOCALIZED INTERNAL COORDINATES **
   Searching for a Minimum

   Optimization Cycle:   2

                       Coordinates (Angstroms)
     ATOM                X               Y               Z
      1  C         2.3219982830    0.4447428627    0.2957559197
      2  O         0.5863351408    0.4335422841    0.5382419523
      3  C         0.0149776351   -0.6744580329   -0.1798409567
      4  C        -1.4360657815   -0.3703419458   -0.4539225012
      5  O        -1.4547931746    0.8532753187   -1.1741599668
      6  H         2.5111483326    1.1658750267    1.1132290742
      7  H         2.4909270801   -0.5255886757    0.8024385938
      8  H         0.3516225458    1.2145210333    0.0138089297
      9  H         0.5867854287   -0.8016891782   -1.1015359393
     10  H         0.1295464556   -1.5506106874    0.4559358832
     11  H        -1.8740042959   -1.1843521768   -1.0414839265
     12  H        -1.9876185177   -0.2775063877    0.4872285299
     13  H        -2.3432901319    1.2124805589   -1.1722535923
   Point Group: c1    Number of degrees of freedom:    33


   Energy is   -269.452008020

 Hessian Updated using BFGS Update

 32 Hessian modes will be used to form the next step
  Hessian Eigenvalues:
     0.002001    0.006796    0.008443    0.011340    0.041915    0.048804
     0.054294    0.057533    0.062609    0.077397    0.090309    0.103461
     0.107731    0.119975    0.123688    0.133912    0.159018    0.160170
     0.218989    0.220585    0.244079    0.307230    0.315910    0.317597
     0.332532    0.336122    0.341355    0.351201    0.371476    0.407867
     0.509299    0.545477

 Minimum Search - Taking Simple RFO Step
 Searching for Lamda that Minimizes Along All modes
 Value Taken    Lamda =  -0.00056145
 Step Taken.  Stepsize is  0.110500

                             Maximum     Tolerance    Cnvgd?
         Gradient           0.004109      0.000100      NO
         Displacement       0.059966      0.000400      NO
         Energy change     -0.001733      0.000000      NO


 New Cartesian Coordinates Obtained by Inverse Iteration

 Displacement from previous Coordinates is:  0.166926
 Adding empirical dispersion correction 
 ----------------------------------------------------------------
 Doing -D3(0) with
 s6  =   1.00000
 s8  =   1.00000
 rs6 =   1.28100
 rs8 =   1.09400
 -D3 energy without 3body term =     -0.0026119025 hartrees
 ----------------------------------------------------------------
             Standard Nuclear Orientation (Angstroms)
    I     Atom           X                Y                Z
 ----------------------------------------------------------------
    1      C       2.3107123741     0.4307046044     0.3170795960
    2      O       0.5980574504     0.4461993466     0.5157120921
    3      C       0.0219983921    -0.6589989455    -0.1902812774
    4      C      -1.4326182768    -0.3682192521    -0.4491721640
    5      O      -1.4741980736     0.8472759326    -1.1749241157
    6      H       2.5052552215     1.1524731096     1.1279199862
    7      H       2.4634764254    -0.5431048885     0.8143126674
    8      H       0.3790217614     1.2308813152    -0.0031482238
    9      H       0.5821912075    -0.7915226742    -1.1181408107
   10      H       0.1442867699    -1.5351477888     0.4432867033
   11      H      -1.8665399123    -1.1933712504    -1.0225256602
   12      H      -1.9718559944    -0.2767974439     0.4987684695
   13      H      -2.3622183452     1.1995179350    -1.1754452627
 ----------------------------------------------------------------
 Nuclear Repulsion Energy =   190.6736620620 hartrees
 There are       21 alpha and       21 beta electrons
 Applying Cartesian multipole field
    Component          Value
    ---------          -----
     (2,0,0)        1.00000E-11
     (0,2,0)        2.00000E-11
     (0,0,2)       -3.00000E-10
 Nucleus-field energy     =    -0.0000000181 hartrees
 Requested basis set is def2-TZVP
 There are 87 shells and 203 basis functions
 A cutoff of  1.0D-11 yielded   3567 shell pairs
 There are     19721 function pairs (     24959 Cartesian)
 Smallest overlap matrix eigenvalue = 4.50E-04
 Guess MOs from SCF MO coefficient file
 Reading MOs from coefficient file
 Reading MOs from coefficient file

 -----------------------------------------------------------------------
  General SCF calculation program by
  Eric Jon Sundstrom, Paul Horn, Yuezhi Mao, Dmitri Zuev, Alec White,
  David Stuck, Shaama M.S., Shane Yost, Joonho Lee, David Small,
  Daniel Levine, Susi Lehtola, Hugh Burton, Evgeny Epifanovsky
 -----------------------------------------------------------------------
 Exchange:     0.1957 Hartree-Fock + 1.0000 wB97X-D3 + LR-HF
 Correlation:  1.0000 wB97X-D3
 Using SG-2 standard quadrature grid
 Dispersion:   Grimme D3
 using 16 threads for integral computing
 -------------------------------------------------------
 OpenMP Integral computing Module                
 Release: version 1.0, May 2013, Q-Chem Inc. Pittsburgh 
 -------------------------------------------------------
 using 16 threads for integral computing
 -------------------------------------------------------
 OpenMP Integral computing Module                
 Release: version 1.0, May 2013, Q-Chem Inc. Pittsburgh 
 -------------------------------------------------------
 -------------------------------------------------------
 OpenMP BLAS3 based DFT computing Module                
 Release: version 1.0, May 2013, Q-Chem Inc. Pittsburgh 
 -------------------------------------------------------
 A unrestricted SCF calculation will be
 performed using DIIS
 SCF converges when DIIS error is below 1.0e-08
 ---------------------------------------
  Cycle       Energy         DIIS error
 ---------------------------------------
    1    -269.4702377976      2.79e-04  
    2    -269.4522524435      7.33e-05  
    3    -269.4523090740      6.98e-05  
    4    -269.4523820869      1.15e-05  
    5    -269.4523877835      4.32e-06  
    6    -269.4523896385      1.94e-06  
    7    -269.4523899330      8.36e-07  
    8    -269.4523900073      1.88e-07  
    9    -269.4523900105      6.55e-08  
   10    -269.4523900107      2.78e-08  
   11    -269.4523900108      1.05e-08  
   12    -269.4523900108      3.59e-09  Convergence criterion met
 ---------------------------------------
 SCF time:   CPU 380.87s  wall 27.00s 
<S^2> =          0.000000000
 SCF   energy in the final basis set =     -269.4523900108
 Total energy in the final basis set =     -269.4523900108
 No wavefunction analysis requested
 Calculating analytic gradient of the SCF energy
 Gradient of SCF Energy
            1           2           3           4           5           6
    1   0.0041912  -0.0048067   0.0004964   0.0004543  -0.0025043  -0.0004206
    2   0.0000812   0.0009941  -0.0001585  -0.0011332   0.0002830  -0.0004023
    3  -0.0008149   0.0001503   0.0000054   0.0002114   0.0001930  -0.0003516
            7           8           9          10          11          12
    1  -0.0005151   0.0010093  -0.0003858  -0.0003700   0.0002922   0.0004308
    2   0.0004888  -0.0011983   0.0001073   0.0004757   0.0008739   0.0001453
    3  -0.0000985   0.0009938   0.0005193  -0.0002613   0.0001545  -0.0007010
           13
    1   0.0021283
    2  -0.0005571
    3  -0.0000005
 Max gradient component =       4.807E-03
 RMS gradient           =       1.263E-03
 Gradient time:  CPU 78.65 s  wall 5.76 s
 Geometry Optimization Parameters
   NAtoms,    NIC,     NZ,  NCons,   NDum,   NFix, NCnnct, MaxDiis
       13      79       0       0       0       0       0       0

 Cartesian Hessian Update
 Hessian Updated using BFGS Update


** GEOMETRY OPTIMIZATION IN DELOCALIZED INTERNAL COORDINATES **
   Searching for a Minimum

   Optimization Cycle:   3

                       Coordinates (Angstroms)
     ATOM                X               Y               Z
      1  C         2.3107123741    0.4307046044    0.3170795960
      2  O         0.5980574504    0.4461993466    0.5157120921
      3  C         0.0219983921   -0.6589989455   -0.1902812774
      4  C        -1.4326182768   -0.3682192521   -0.4491721640
      5  O        -1.4741980736    0.8472759326   -1.1749241157
      6  H         2.5052552215    1.1524731096    1.1279199862
      7  H         2.4634764254   -0.5431048885    0.8143126674
      8  H         0.3790217614    1.2308813152   -0.0031482238
      9  H         0.5821912075   -0.7915226742   -1.1181408107
     10  H         0.1442867699   -1.5351477888    0.4432867033
     11  H        -1.8665399123   -1.1933712504   -1.0225256602
     12  H        -1.9718559944   -0.2767974439    0.4987684695
     13  H        -2.3622183452    1.1995179350   -1.1754452627
   Point Group: c1    Number of degrees of freedom:    33


   Energy is   -269.452390011

 Hessian Updated using BFGS Update

 33 Hessian modes will be used to form the next step
  Hessian Eigenvalues:
     0.001997    0.006741    0.007764    0.011256    0.035491    0.048779
     0.054481    0.057582    0.061825    0.070612    0.090358    0.091344
     0.107068    0.108658    0.123676    0.133915    0.159048    0.160007
     0.163064    0.220481    0.221557    0.243458    0.307331    0.317415
     0.321659    0.332631    0.336275    0.341149    0.348906    0.382302
     0.410688    0.513774    0.596462

 Minimum Search - Taking Simple RFO Step
 Searching for Lamda that Minimizes Along All modes
 Value Taken    Lamda =  -0.00027953
 Step Taken.  Stepsize is  0.107714

                             Maximum     Tolerance    Cnvgd?
         Gradient           0.002617      0.000100      NO
         Displacement       0.058877      0.000400      NO
         Energy change     -0.000382      0.000000      NO


 New Cartesian Coordinates Obtained by Inverse Iteration

 Displacement from previous Coordinates is:  0.159444
 Adding empirical dispersion correction 
 ----------------------------------------------------------------
 Doing -D3(0) with
 s6  =   1.00000
 s8  =   1.00000
 rs6 =   1.28100
 rs8 =   1.09400
 -D3 energy without 3body term =     -0.0026042277 hartrees
 ----------------------------------------------------------------
             Standard Nuclear Orientation (Angstroms)
    I     Atom           X                Y                Z
 ----------------------------------------------------------------
    1      C       2.2984104512     0.4221852845     0.3379957139
    2      O       0.6111494428     0.4550941802     0.4936310746
    3      C       0.0294426222    -0.6494863728    -0.2030093573
    4      C      -1.4300453964    -0.3640004968    -0.4424739474
    5      O      -1.4871016222     0.8435970049    -1.1767021942
    6      H       2.4947539976     1.1400096352     1.1508567747
    7      H       2.4433349271    -0.5566176234     0.8257516075
    8      H       0.3983532289     1.2395672182    -0.0283479786
    9      H       0.5787740994    -0.7838707940    -1.1379903067
   10      H       0.1635867387    -1.5253497336     0.4295455212
   11      H      -1.8669676335    -1.1987056418    -1.0011678020
   12      H      -1.9566341387    -0.2694982482     0.5132861047
   13      H      -2.3794877172     1.1869655876    -1.1779332104
 ----------------------------------------------------------------
 Nuclear Repulsion Energy =   191.0533531740 hartrees
 There are       21 alpha and       21 beta electrons
 Applying Cartesian multipole field
    Component          Value
    ---------          -----
     (2,0,0)        1.00000E-11
     (0,2,0)        2.00000E-11
     (0,0,2)       -3.00000E-10
 Nucleus-field energy     =    -0.0000000181 hartrees
 Requested basis set is def2-TZVP
 There are 87 shells and 203 basis functions
 A cutoff of  1.0D-11 yielded   3569 shell pairs
 There are     19725 function pairs (     24963 Cartesian)
 Smallest overlap matrix eigenvalue = 4.48E-04
 Guess MOs from SCF MO coefficient file
 Reading MOs from coefficient file
 Reading MOs from coefficient file

 -----------------------------------------------------------------------
  General SCF calculation program by
  Eric Jon Sundstrom, Paul Horn, Yuezhi Mao, Dmitri Zuev, Alec White,
  David Stuck, Shaama M.S., Shane Yost, Joonho Lee, David Small,
  Daniel Levine, Susi Lehtola, Hugh Burton, Evgeny Epifanovsky
 -----------------------------------------------------------------------
 Exchange:     0.1957 Hartree-Fock + 1.0000 wB97X-D3 + LR-HF
 Correlation:  1.0000 wB97X-D3
 Using SG-2 standard quadrature grid
 Dispersion:   Grimme D3
 using 16 threads for integral computing
 -------------------------------------------------------
 OpenMP Integral computing Module                
 Release: version 1.0, May 2013, Q-Chem Inc. Pittsburgh 
 -------------------------------------------------------
 using 16 threads for integral computing
 -------------------------------------------------------
 OpenMP Integral computing Module                
 Release: version 1.0, May 2013, Q-Chem Inc. Pittsburgh 
 -------------------------------------------------------
 -------------------------------------------------------
 OpenMP BLAS3 based DFT computing Module                
 Release: version 1.0, May 2013, Q-Chem Inc. Pittsburgh 
 -------------------------------------------------------
 A unrestricted SCF calculation will be
 performed using DIIS
 SCF converges when DIIS error is below 1.0e-08
 ---------------------------------------
  Cycle       Energy         DIIS error
 ---------------------------------------
    1    -269.4619750904      2.78e-04  
    2    -269.4524452293      6.70e-05  
    3    -269.4524973442      6.15e-05  
    4    -269.4525550396      1.19e-05  
    5    -269.4525605469      4.07e-06  
    6    -269.4525623578      1.58e-06  
    7    -269.4525625791      8.08e-07  
    8    -269.4525626302      1.95e-07  
    9    -269.4525626322      9.86e-08  
   10    -269.4525626325      2.42e-08  
   11    -269.4525626325      6.01e-09  Convergence criterion met
 ---------------------------------------
 SCF time:   CPU 351.84s  wall 25.00s 
<S^2> =          0.000000000
 SCF   energy in the final basis set =     -269.4525626325
 Total energy in the final basis set =     -269.4525626325
 No wavefunction analysis requested
 Calculating analytic gradient of the SCF energy
 Gradient of SCF Energy
            1           2           3           4           5           6
    1   0.0013603  -0.0026549   0.0010922   0.0002984  -0.0017192  -0.0002128
    2  -0.0002594  -0.0005052   0.0016624   0.0003932  -0.0006906  -0.0002598
    3   0.0006784  -0.0014179   0.0008822  -0.0003786   0.0005739  -0.0005843
            7           8           9          10          11          12
    1  -0.0001918   0.0007420  -0.0001622  -0.0002073   0.0002682   0.0000704
    2   0.0005273  -0.0009887  -0.0001122   0.0001223   0.0003449   0.0000075
    3  -0.0004782   0.0008751   0.0002061  -0.0001578   0.0001313  -0.0002809
           13
    1   0.0013168
    2  -0.0002418
    3  -0.0000494
 Max gradient component =       2.655E-03
 RMS gradient           =       8.184E-04
 Gradient time:  CPU 79.55 s  wall 5.73 s
 Geometry Optimization Parameters
   NAtoms,    NIC,     NZ,  NCons,   NDum,   NFix, NCnnct, MaxDiis
       13      79       0       0       0       0       0       0

 Cartesian Hessian Update
 Hessian Updated using BFGS Update


** GEOMETRY OPTIMIZATION IN DELOCALIZED INTERNAL COORDINATES **
   Searching for a Minimum

   Optimization Cycle:   4

                       Coordinates (Angstroms)
     ATOM                X               Y               Z
      1  C         2.2984104512    0.4221852845    0.3379957139
      2  O         0.6111494428    0.4550941802    0.4936310746
      3  C         0.0294426222   -0.6494863728   -0.2030093573
      4  C        -1.4300453964   -0.3640004968   -0.4424739474
      5  O        -1.4871016222    0.8435970049   -1.1767021942
      6  H         2.4947539976    1.1400096352    1.1508567747
      7  H         2.4433349271   -0.5566176234    0.8257516075
      8  H         0.3983532289    1.2395672182   -0.0283479786
      9  H         0.5787740994   -0.7838707940   -1.1379903067
     10  H         0.1635867387   -1.5253497336    0.4295455212
     11  H        -1.8669676335   -1.1987056418   -1.0011678020
     12  H        -1.9566341387   -0.2694982482    0.5132861047
     13  H        -2.3794877172    1.1869655876   -1.1779332104
   Point Group: c1    Number of degrees of freedom:    33


   Energy is   -269.452562633

 Hessian Updated using BFGS Update

 33 Hessian modes will be used to form the next step
  Hessian Eigenvalues:
     0.002006    0.006772    0.007627    0.011128    0.032677    0.049079
     0.054962    0.057739    0.061952    0.068530    0.085095    0.090844
     0.107060    0.108394    0.123631    0.134137    0.159175    0.160119
     0.162081    0.220528    0.221394    0.242240    0.307911    0.317439
     0.320945    0.332579    0.336081    0.341018    0.349102    0.389113
     0.413248    0.513115    0.561461

 Minimum Search - Taking Simple RFO Step
 Searching for Lamda that Minimizes Along All modes
 Value Taken    Lamda =  -0.00005687
 Step Taken.  Stepsize is  0.035609

                             Maximum     Tolerance    Cnvgd?
         Gradient           0.001559      0.000100      NO
         Displacement       0.016553      0.000400      NO
         Energy change     -0.000173      0.000000      NO


 New Cartesian Coordinates Obtained by Inverse Iteration

 Displacement from previous Coordinates is:  0.050163
 Adding empirical dispersion correction 
 ----------------------------------------------------------------
 Doing -D3(0) with
 s6  =   1.00000
 s8  =   1.00000
 rs6 =   1.28100
 rs8 =   1.09400
 -D3 energy without 3body term =     -0.0026033147 hartrees
 ----------------------------------------------------------------
             Standard Nuclear Orientation (Angstroms)
    I     Atom           X                Y                Z
 ----------------------------------------------------------------
    1      C       2.2935920017     0.4208513653     0.3433952487
    2      O       0.6158754644     0.4558518833     0.4860909339
    3      C       0.0307747312    -0.6515969361    -0.2079698357
    4      C      -1.4295828974    -0.3638341205    -0.4404265180
    5      O      -1.4854859247     0.8452797466    -1.1739243610
    6      H       2.4894011087     1.1419834996     1.1543608701
    7      H       2.4384393010    -0.5564441809     0.8359503280
    8      H       0.4007084219     1.2397472042    -0.0380420116
    9      H       0.5761325136    -0.7846712125    -1.1459007245
   10      H       0.1697631209    -1.5274940709     0.4239698432
   11      H      -1.8715015647    -1.1982978809    -0.9968437572
   12      H      -1.9508935560    -0.2685939017     0.5185888305
   13      H      -2.3796537206     1.1871086045    -1.1758068464
 ----------------------------------------------------------------
 Nuclear Repulsion Energy =   191.1391961140 hartrees
 There are       21 alpha and       21 beta electrons
 Applying Cartesian multipole field
    Component          Value
    ---------          -----
     (2,0,0)        1.00000E-11
     (0,2,0)        2.00000E-11
     (0,0,2)       -3.00000E-10
 Nucleus-field energy     =    -0.0000000180 hartrees
 Requested basis set is def2-TZVP
 There are 87 shells and 203 basis functions
 A cutoff of  1.0D-11 yielded   3570 shell pairs
 There are     19728 function pairs (     24966 Cartesian)
 Smallest overlap matrix eigenvalue = 4.48E-04
 Guess MOs from SCF MO coefficient file
 Reading MOs from coefficient file
 Reading MOs from coefficient file

 -----------------------------------------------------------------------
  General SCF calculation program by
  Eric Jon Sundstrom, Paul Horn, Yuezhi Mao, Dmitri Zuev, Alec White,
  David Stuck, Shaama M.S., Shane Yost, Joonho Lee, David Small,
  Daniel Levine, Susi Lehtola, Hugh Burton, Evgeny Epifanovsky
 -----------------------------------------------------------------------
 Exchange:     0.1957 Hartree-Fock + 1.0000 wB97X-D3 + LR-HF
 Correlation:  1.0000 wB97X-D3
 Using SG-2 standard quadrature grid
 Dispersion:   Grimme D3
 using 16 threads for integral computing
 -------------------------------------------------------
 OpenMP Integral computing Module                
 Release: version 1.0, May 2013, Q-Chem Inc. Pittsburgh 
 -------------------------------------------------------
 using 16 threads for integral computing
 -------------------------------------------------------
 OpenMP Integral computing Module                
 Release: version 1.0, May 2013, Q-Chem Inc. Pittsburgh 
 -------------------------------------------------------
 -------------------------------------------------------
 OpenMP BLAS3 based DFT computing Module                
 Release: version 1.0, May 2013, Q-Chem Inc. Pittsburgh 
 -------------------------------------------------------
 A unrestricted SCF calculation will be
 performed using DIIS
 SCF converges when DIIS error is below 1.0e-08
 ---------------------------------------
  Cycle       Energy         DIIS error
 ---------------------------------------
    1    -269.4521560664      1.01e-04  
    2    -269.4525862776      1.92e-05  
    3    -269.4525932816      1.35e-05  
    4    -269.4525963269      5.27e-06  
    5    -269.4525970002      1.34e-06  
    6    -269.4525972107      5.23e-07  
    7    -269.4525972384      2.53e-07  
    8    -269.4525972435      7.22e-08  
    9    -269.4525972437      3.28e-08  
   10    -269.4525972437      7.48e-09  Convergence criterion met
 ---------------------------------------
 SCF time:   CPU 319.23s  wall 24.00s 
<S^2> =          0.000000000
 SCF   energy in the final basis set =     -269.4525972437
 Total energy in the final basis set =     -269.4525972437
 No wavefunction analysis requested
 Calculating analytic gradient of the SCF energy
 Gradient of SCF Energy
            1           2           3           4           5           6
    1   0.0001474  -0.0007378   0.0003918   0.0000380  -0.0003043  -0.0000183
    2   0.0000322  -0.0004464   0.0008772   0.0003950  -0.0004006  -0.0000332
    3   0.0003931  -0.0006858   0.0007093  -0.0004245   0.0002700  -0.0002134
            7           8           9          10          11          12
    1  -0.0000471   0.0004078  -0.0000986  -0.0001103   0.0000612   0.0000302
    2   0.0001164  -0.0000491  -0.0001149  -0.0001783  -0.0001176  -0.0000832
    3  -0.0002033   0.0002579  -0.0000655  -0.0001252   0.0000568   0.0000087
           13
    1   0.0002402
    2   0.0000026
    3   0.0000220
 Max gradient component =       8.772E-04
 RMS gradient           =       3.200E-04
 Gradient time:  CPU 77.11 s  wall 6.96 s
 Geometry Optimization Parameters
   NAtoms,    NIC,     NZ,  NCons,   NDum,   NFix, NCnnct, MaxDiis
       13      79       0       0       0       0       0       0

 Cartesian Hessian Update
 Hessian Updated using BFGS Update


** GEOMETRY OPTIMIZATION IN DELOCALIZED INTERNAL COORDINATES **
   Searching for a Minimum

   Optimization Cycle:   5

                       Coordinates (Angstroms)
     ATOM                X               Y               Z
      1  C         2.2935920017    0.4208513653    0.3433952487
      2  O         0.6158754644    0.4558518833    0.4860909339
      3  C         0.0307747312   -0.6515969361   -0.2079698357
      4  C        -1.4295828974   -0.3638341205   -0.4404265180
      5  O        -1.4854859247    0.8452797466   -1.1739243610
      6  H         2.4894011087    1.1419834996    1.1543608701
      7  H         2.4384393010   -0.5564441809    0.8359503280
      8  H         0.4007084219    1.2397472042   -0.0380420116
      9  H         0.5761325136   -0.7846712125   -1.1459007245
     10  H         0.1697631209   -1.5274940709    0.4239698432
     11  H        -1.8715015647   -1.1982978809   -0.9968437572
     12  H        -1.9508935560   -0.2685939017    0.5185888305
     13  H        -2.3796537206    1.1871086045   -1.1758068464
   Point Group: c1    Number of degrees of freedom:    33


   Energy is   -269.452597244

 Hessian Updated using BFGS Update

 33 Hessian modes will be used to form the next step
  Hessian Eigenvalues:
     0.002005    0.006784    0.008142    0.010755    0.032960    0.048699
     0.053651    0.057985    0.062541    0.067004    0.079717    0.091466
     0.105801    0.108380    0.123380    0.134012    0.158853    0.160327
     0.160860    0.215523    0.221252    0.244050    0.307916    0.315034
     0.317568    0.332871    0.336054    0.340941    0.351341    0.362190
     0.403919    0.511204    0.551863

 Minimum Search - Taking Simple RFO Step
 Searching for Lamda that Minimizes Along All modes
 Value Taken    Lamda =  -0.00001175
 Step Taken.  Stepsize is  0.018028

                             Maximum     Tolerance    Cnvgd?
         Gradient           0.000569      0.000100      NO
         Displacement       0.010475      0.000400      NO
         Energy change     -0.000035      0.000000      NO


 New Cartesian Coordinates Obtained by Inverse Iteration

 Displacement from previous Coordinates is:  0.023925
 Adding empirical dispersion correction 
 ----------------------------------------------------------------
 Doing -D3(0) with
 s6  =   1.00000
 s8  =   1.00000
 rs6 =   1.28100
 rs8 =   1.09400
 -D3 energy without 3body term =     -0.0026030350 hartrees
 ----------------------------------------------------------------
             Standard Nuclear Orientation (Angstroms)
    I     Atom           X                Y                Z
 ----------------------------------------------------------------
    1      C       2.2920372500     0.4210684426     0.3420409667
    2      O       0.6162296290     0.4532895846     0.4868691816
    3      C       0.0307350293    -0.6547638331    -0.2086665699
    4      C      -1.4293936189    -0.3637380471    -0.4397781278
    5      O      -1.4820393182     0.8471729810    -1.1722314311
    6      H       2.4876689267     1.1450513845     1.1511050501
    7      H       2.4402276044    -0.5540694076     0.8388982434
    8      H       0.3954853322     1.2363647969    -0.0370257084
    9      H       0.5767969571    -0.7855749581    -1.1465319353
   10      H       0.1712165711    -1.5301168382     0.4235571717
   11      H      -1.8742197941    -1.1956103828    -0.9977856538
   12      H      -1.9504372682    -0.2678701321     0.5194095365
   13      H      -2.3767383004     1.1886864095    -1.1764187238
 ----------------------------------------------------------------
 Nuclear Repulsion Energy =   191.1538594382 hartrees
 There are       21 alpha and       21 beta electrons
 Applying Cartesian multipole field
    Component          Value
    ---------          -----
     (2,0,0)        1.00000E-11
     (0,2,0)        2.00000E-11
     (0,0,2)       -3.00000E-10
 Nucleus-field energy     =    -0.0000000180 hartrees
 Requested basis set is def2-TZVP
 There are 87 shells and 203 basis functions
 A cutoff of  1.0D-11 yielded   3570 shell pairs
 There are     19728 function pairs (     24966 Cartesian)
 Smallest overlap matrix eigenvalue = 4.48E-04
 Guess MOs from SCF MO coefficient file
 Reading MOs from coefficient file
 Reading MOs from coefficient file

 -----------------------------------------------------------------------
  General SCF calculation program by
  Eric Jon Sundstrom, Paul Horn, Yuezhi Mao, Dmitri Zuev, Alec White,
  David Stuck, Shaama M.S., Shane Yost, Joonho Lee, David Small,
  Daniel Levine, Susi Lehtola, Hugh Burton, Evgeny Epifanovsky
 -----------------------------------------------------------------------
 Exchange:     0.1957 Hartree-Fock + 1.0000 wB97X-D3 + LR-HF
 Correlation:  1.0000 wB97X-D3
 Using SG-2 standard quadrature grid
 Dispersion:   Grimme D3
 using 16 threads for integral computing
 -------------------------------------------------------
 OpenMP Integral computing Module                
 Release: version 1.0, May 2013, Q-Chem Inc. Pittsburgh 
 -------------------------------------------------------
 using 16 threads for integral computing
 -------------------------------------------------------
 OpenMP Integral computing Module                
 Release: version 1.0, May 2013, Q-Chem Inc. Pittsburgh 
 -------------------------------------------------------
 -------------------------------------------------------
 OpenMP BLAS3 based DFT computing Module                
 Release: version 1.0, May 2013, Q-Chem Inc. Pittsburgh 
 -------------------------------------------------------
 A unrestricted SCF calculation will be
 performed using DIIS
 SCF converges when DIIS error is below 1.0e-08
 ---------------------------------------
  Cycle       Energy         DIIS error
 ---------------------------------------
    1    -269.4513126453      3.65e-05  
    2    -269.4526031557      6.05e-06  
    3    -269.4526042094      3.14e-06  
    4    -269.4526043692      1.39e-06  
    5    -269.4526044049      5.05e-07  
    6    -269.4526044111      1.32e-07  
    7    -269.4526044117      3.48e-08  
    8    -269.4526044118      1.02e-08  
    9    -269.4526044118      4.80e-09  Convergence criterion met
 ---------------------------------------
 SCF time:   CPU 287.92s  wall 23.00s 
<S^2> =          0.000000000
 SCF   energy in the final basis set =     -269.4526044118
 Total energy in the final basis set =     -269.4526044118
 No wavefunction analysis requested
 Calculating analytic gradient of the SCF energy
 Gradient of SCF Energy
            1           2           3           4           5           6
    1  -0.0000552  -0.0001078   0.0000537   0.0000031   0.0000805  -0.0000038
    2   0.0000571  -0.0003048   0.0002251   0.0002672  -0.0001248   0.0000347
    3   0.0000235  -0.0000434   0.0001585  -0.0000705  -0.0000354   0.0000284
            7           8           9          10          11          12
    1   0.0000499   0.0000949   0.0000129   0.0000708  -0.0000037  -0.0000535
    2  -0.0000291   0.0000351  -0.0000217  -0.0000406  -0.0001099  -0.0000500
    3  -0.0000198  -0.0000549  -0.0000754   0.0000006  -0.0000112   0.0000637
           13
    1  -0.0001418
    2   0.0000618
    3   0.0000359
 Max gradient component =       3.048E-04
 RMS gradient           =       9.747E-05
 Gradient time:  CPU 79.70 s  wall 5.76 s
 Geometry Optimization Parameters
   NAtoms,    NIC,     NZ,  NCons,   NDum,   NFix, NCnnct, MaxDiis
       13      79       0       0       0       0       0       0

 Cartesian Hessian Update
 Hessian Updated using BFGS Update


** GEOMETRY OPTIMIZATION IN DELOCALIZED INTERNAL COORDINATES **
   Searching for a Minimum

   Optimization Cycle:   6

                       Coordinates (Angstroms)
     ATOM                X               Y               Z
      1  C         2.2920372500    0.4210684426    0.3420409667
      2  O         0.6162296290    0.4532895846    0.4868691816
      3  C         0.0307350293   -0.6547638331   -0.2086665699
      4  C        -1.4293936189   -0.3637380471   -0.4397781278
      5  O        -1.4820393182    0.8471729810   -1.1722314311
      6  H         2.4876689267    1.1450513845    1.1511050501
      7  H         2.4402276044   -0.5540694076    0.8388982434
      8  H         0.3954853322    1.2363647969   -0.0370257084
      9  H         0.5767969571   -0.7855749581   -1.1465319353
     10  H         0.1712165711   -1.5301168382    0.4235571717
     11  H        -1.8742197941   -1.1956103828   -0.9977856538
     12  H        -1.9504372682   -0.2678701321    0.5194095365
     13  H        -2.3767383004    1.1886864095   -1.1764187238
   Point Group: c1    Number of degrees of freedom:    33


   Energy is   -269.452604412

 Hessian Updated using BFGS Update

 33 Hessian modes will be used to form the next step
  Hessian Eigenvalues:
     0.001950    0.006660    0.007744    0.010221    0.032400    0.046793
     0.052684    0.058682    0.061158    0.068813    0.079841    0.092580
     0.101295    0.107890    0.125401    0.134012    0.158350    0.160472
     0.163025    0.209663    0.223700    0.245373    0.308396    0.317269
     0.318863    0.332721    0.336411    0.341717    0.343355    0.359888
     0.407667    0.511286    0.569405

 Minimum Search - Taking Simple RFO Step
 Searching for Lamda that Minimizes Along All modes
 Value Taken    Lamda =  -0.00000251
 Step Taken.  Stepsize is  0.017103

                             Maximum     Tolerance    Cnvgd?
         Gradient           0.000243      0.000100      NO
         Displacement       0.006151      0.000400      NO
         Energy change     -0.000007      0.000000      NO


 New Cartesian Coordinates Obtained by Inverse Iteration

 Displacement from previous Coordinates is:  0.024569
 Adding empirical dispersion correction 
 ----------------------------------------------------------------
 Doing -D3(0) with
 s6  =   1.00000
 s8  =   1.00000
 rs6 =   1.28100
 rs8 =   1.09400
 -D3 energy without 3body term =     -0.0026027755 hartrees
 ----------------------------------------------------------------
             Standard Nuclear Orientation (Angstroms)
    I     Atom           X                Y                Z
 ----------------------------------------------------------------
    1      C       2.2911290281     0.4207605301     0.3397342953
    2      O       0.6156788590     0.4517838976     0.4880852662
    3      C       0.0302920105    -0.6569096827    -0.2079489719
    4      C      -1.4291785404    -0.3643469676    -0.4400959298
    5      O      -1.4786408739     0.8489859244    -1.1692986129
    6      H       2.4877011530     1.1485659309     1.1452156545
    7      H       2.4407888041    -0.5517536970     0.8414429214
    8      H       0.3917247108     1.2348020417    -0.0347313866
    9      H       0.5773267915    -0.7870896804    -1.1452202264
   10      H       0.1698568918    -1.5322477045     0.4243728893
   11      H      -1.8746798710    -1.1936573817    -1.0011226624
   12      H      -1.9512192853    -0.2696989263     0.5185554258
   13      H      -2.3732106782     1.1906957155    -1.1755466627
 ----------------------------------------------------------------
 Nuclear Repulsion Energy =   191.1877204758 hartrees
 There are       21 alpha and       21 beta electrons
 Applying Cartesian multipole field
    Component          Value
    ---------          -----
     (2,0,0)        1.00000E-11
     (0,2,0)        2.00000E-11
     (0,0,2)       -3.00000E-10
 Nucleus-field energy     =    -0.0000000179 hartrees
 Requested basis set is def2-TZVP
 There are 87 shells and 203 basis functions
 A cutoff of  1.0D-11 yielded   3571 shell pairs
 There are     19731 function pairs (     24969 Cartesian)
 Smallest overlap matrix eigenvalue = 4.48E-04
 Guess MOs from SCF MO coefficient file
 Reading MOs from coefficient file
 Reading MOs from coefficient file

 -----------------------------------------------------------------------
  General SCF calculation program by
  Eric Jon Sundstrom, Paul Horn, Yuezhi Mao, Dmitri Zuev, Alec White,
  David Stuck, Shaama M.S., Shane Yost, Joonho Lee, David Small,
  Daniel Levine, Susi Lehtola, Hugh Burton, Evgeny Epifanovsky
 -----------------------------------------------------------------------
 Exchange:     0.1957 Hartree-Fock + 1.0000 wB97X-D3 + LR-HF
 Correlation:  1.0000 wB97X-D3
 Using SG-2 standard quadrature grid
 Dispersion:   Grimme D3
 using 16 threads for integral computing
 -------------------------------------------------------
 OpenMP Integral computing Module                
 Release: version 1.0, May 2013, Q-Chem Inc. Pittsburgh 
 -------------------------------------------------------
 using 16 threads for integral computing
 -------------------------------------------------------
 OpenMP Integral computing Module                
 Release: version 1.0, May 2013, Q-Chem Inc. Pittsburgh 
 -------------------------------------------------------
 -------------------------------------------------------
 OpenMP BLAS3 based DFT computing Module                
 Release: version 1.0, May 2013, Q-Chem Inc. Pittsburgh 
 -------------------------------------------------------
 A unrestricted SCF calculation will be
 performed using DIIS
 SCF converges when DIIS error is below 1.0e-08
 ---------------------------------------
  Cycle       Energy         DIIS error
 ---------------------------------------
    1    -269.4521137962      3.27e-05  
    2    -269.4526049382      5.32e-06  
    3    -269.4526058175      3.38e-06  
    4    -269.4526060003      1.51e-06  
    5    -269.4526060504      3.50e-07  
    6    -269.4526060565      1.27e-07  
    7    -269.4526060578      5.67e-08  
    8    -269.4526060581      1.80e-08  
    9    -269.4526060582      9.77e-09  Convergence criterion met
 ---------------------------------------
 SCF time:   CPU 287.95s  wall 21.00s 
<S^2> =          0.000000000
 SCF   energy in the final basis set =     -269.4526060582
 Total energy in the final basis set =     -269.4526060582
 No wavefunction analysis requested
 Calculating analytic gradient of the SCF energy
 Gradient of SCF Energy
            1           2           3           4           5           6
    1  -0.0000177   0.0000274  -0.0001379   0.0000006   0.0001530  -0.0000013
    2   0.0000818  -0.0000049  -0.0000825   0.0000127  -0.0000055   0.0000200
    3  -0.0000715   0.0001070  -0.0000079  -0.0000024  -0.0000424   0.0000494
            7           8           9          10          11          12
    1   0.0000134   0.0000539  -0.0000018   0.0000340  -0.0000147  -0.0000019
    2  -0.0000379   0.0000659   0.0000274  -0.0000251  -0.0000509  -0.0000126
    3   0.0000248  -0.0000566  -0.0000421  -0.0000196  -0.0000089   0.0000215
           13
    1  -0.0001069
    2   0.0000115
    3   0.0000487
 Max gradient component =       1.530E-04
 RMS gradient           =       5.390E-05
 Gradient time:  CPU 80.16 s  wall 5.78 s
 Geometry Optimization Parameters
   NAtoms,    NIC,     NZ,  NCons,   NDum,   NFix, NCnnct, MaxDiis
       13      79       0       0       0       0       0       0

 Cartesian Hessian Update
 Hessian Updated using BFGS Update


** GEOMETRY OPTIMIZATION IN DELOCALIZED INTERNAL COORDINATES **
   Searching for a Minimum

   Optimization Cycle:   7

                       Coordinates (Angstroms)
     ATOM                X               Y               Z
      1  C         2.2911290281    0.4207605301    0.3397342953
      2  O         0.6156788590    0.4517838976    0.4880852662
      3  C         0.0302920105   -0.6569096827   -0.2079489719
      4  C        -1.4291785404   -0.3643469676   -0.4400959298
      5  O        -1.4786408739    0.8489859244   -1.1692986129
      6  H         2.4877011530    1.1485659309    1.1452156545
      7  H         2.4407888041   -0.5517536970    0.8414429214
      8  H         0.3917247108    1.2348020417   -0.0347313866
      9  H         0.5773267915   -0.7870896804   -1.1452202264
     10  H         0.1698568918   -1.5322477045    0.4243728893
     11  H        -1.8746798710   -1.1936573817   -1.0011226624
     12  H        -1.9512192853   -0.2696989263    0.5185554258
     13  H        -2.3732106782    1.1906957155   -1.1755466627
   Point Group: c1    Number of degrees of freedom:    33


   Energy is   -269.452606058

 Hessian Updated using BFGS Update

 33 Hessian modes will be used to form the next step
  Hessian Eigenvalues:
     0.001741    0.005263    0.007476    0.009982    0.031899    0.049452
     0.053339    0.059229    0.061436    0.069076    0.080427    0.092412
     0.097986    0.107837    0.124983    0.134458    0.159562    0.161801
     0.162903    0.216060    0.229977    0.235252    0.314520    0.317529
     0.319253    0.332444    0.336237    0.341193    0.349087    0.391282
     0.415160    0.512075    0.556833

 Minimum Search - Taking Simple RFO Step
 Searching for Lamda that Minimizes Along All modes
 Value Taken    Lamda =   0.00000000
 Step Taken.  Stepsize is  0.012415

                             Maximum     Tolerance    Cnvgd?
         Gradient           0.000110      0.000100      NO
         Displacement       0.005445      0.000400      NO
         Energy change     -0.000002      0.000000      NO


 New Cartesian Coordinates Obtained by Inverse Iteration

 Displacement from previous Coordinates is:  0.014832
 Adding empirical dispersion correction 
 ----------------------------------------------------------------
 Doing -D3(0) with
 s6  =   1.00000
 s8  =   1.00000
 rs6 =   1.28100
 rs8 =   1.09400
 -D3 energy without 3body term =     -0.0026025080 hartrees
 ----------------------------------------------------------------
             Standard Nuclear Orientation (Angstroms)
    I     Atom           X                Y                Z
 ----------------------------------------------------------------
    1      C       2.2907064201     0.4199608407     0.3383598806
    2      O       0.6155451324     0.4507634780     0.4891124387
    3      C       0.0302293321    -0.6576704793    -0.2073874763
    4      C      -1.4290250830    -0.3643649276    -0.4403444244
    5      O      -1.4775959111     0.8502495643    -1.1676463064
    6      H       2.4883157078     1.1504803138     1.1410644130
    7      H       2.4413673890    -0.5507704516     0.8430845595
    8      H       0.3895712164     1.2339701430    -0.0325081186
    9      H       0.5780183234    -0.7878456966    -1.1441465606
   10      H       0.1689329533    -1.5330159951     0.4250497580
   11      H      -1.8742955247    -1.1923843948    -1.0032623453
   12      H      -1.9519741679    -0.2709893401     0.5178852600
   13      H      -2.3722267876     1.1915069453    -1.1758190784
 ----------------------------------------------------------------
 Nuclear Repulsion Energy =   191.2025401514 hartrees
 There are       21 alpha and       21 beta electrons
 Applying Cartesian multipole field
    Component          Value
    ---------          -----
     (2,0,0)        1.00000E-11
     (0,2,0)        2.00000E-11
     (0,0,2)       -3.00000E-10
 Nucleus-field energy     =    -0.0000000179 hartrees
 Requested basis set is def2-TZVP
 There are 87 shells and 203 basis functions
 A cutoff of  1.0D-11 yielded   3571 shell pairs
 There are     19731 function pairs (     24969 Cartesian)
 Smallest overlap matrix eigenvalue = 4.48E-04
 Guess MOs from SCF MO coefficient file
 Reading MOs from coefficient file
 Reading MOs from coefficient file

 -----------------------------------------------------------------------
  General SCF calculation program by
  Eric Jon Sundstrom, Paul Horn, Yuezhi Mao, Dmitri Zuev, Alec White,
  David Stuck, Shaama M.S., Shane Yost, Joonho Lee, David Small,
  Daniel Levine, Susi Lehtola, Hugh Burton, Evgeny Epifanovsky
 -----------------------------------------------------------------------
 Exchange:     0.1957 Hartree-Fock + 1.0000 wB97X-D3 + LR-HF
 Correlation:  1.0000 wB97X-D3
 Using SG-2 standard quadrature grid
 Dispersion:   Grimme D3
 using 16 threads for integral computing
 -------------------------------------------------------
 OpenMP Integral computing Module                
 Release: version 1.0, May 2013, Q-Chem Inc. Pittsburgh 
 -------------------------------------------------------
 using 16 threads for integral computing
 -------------------------------------------------------
 OpenMP Integral computing Module                
 Release: version 1.0, May 2013, Q-Chem Inc. Pittsburgh 
 -------------------------------------------------------
 -------------------------------------------------------
 OpenMP BLAS3 based DFT computing Module                
 Release: version 1.0, May 2013, Q-Chem Inc. Pittsburgh 
 -------------------------------------------------------
 A unrestricted SCF calculation will be
 performed using DIIS
 SCF converges when DIIS error is below 1.0e-08
 ---------------------------------------
  Cycle       Energy         DIIS error
 ---------------------------------------
    1    -269.4526402541      1.84e-05  
    2    -269.4526061685      2.95e-06  
    3    -269.4526065346      8.63e-07  
    4    -269.4526065683      6.22e-07  
    5    -269.4526065774      2.09e-07  
    6    -269.4526065794      8.22e-08  
    7    -269.4526065799      3.26e-08  
    8    -269.4526065801      1.04e-08  
    9    -269.4526065801      4.01e-09  Convergence criterion met
 ---------------------------------------
 SCF time:   CPU 287.03s  wall 20.00s 
<S^2> =          0.000000000
 SCF   energy in the final basis set =     -269.4526065801
 Total energy in the final basis set =     -269.4526065801
 No wavefunction analysis requested
 Calculating analytic gradient of the SCF energy
 Gradient of SCF Energy
            1           2           3           4           5           6
    1  -0.0000133   0.0000241  -0.0000732   0.0000267  -0.0000006  -0.0000000
    2   0.0000319   0.0000505  -0.0001103  -0.0000621   0.0000423   0.0000017
    3  -0.0000343   0.0000867  -0.0000384   0.0000339  -0.0000420   0.0000186
            7           8           9          10          11          12
    1   0.0000134   0.0000105  -0.0000046   0.0000330  -0.0000045   0.0000073
    2  -0.0000055  -0.0000012   0.0000305   0.0000121   0.0000094  -0.0000037
    3   0.0000078  -0.0000210  -0.0000082  -0.0000120  -0.0000051  -0.0000064
           13
    1  -0.0000188
    2   0.0000045
    3   0.0000206
 Max gradient component =       1.103E-04
 RMS gradient           =       3.430E-05
 Gradient time:  CPU 80.50 s  wall 5.73 s
 Geometry Optimization Parameters
   NAtoms,    NIC,     NZ,  NCons,   NDum,   NFix, NCnnct, MaxDiis
       13      79       0       0       0       0       0       0

 Cartesian Hessian Update
 Hessian Updated using BFGS Update


** GEOMETRY OPTIMIZATION IN DELOCALIZED INTERNAL COORDINATES **
   Searching for a Minimum

   Optimization Cycle:   8

                       Coordinates (Angstroms)
     ATOM                X               Y               Z
      1  C         2.2907064201    0.4199608407    0.3383598806
      2  O         0.6155451324    0.4507634780    0.4891124387
      3  C         0.0302293321   -0.6576704793   -0.2073874763
      4  C        -1.4290250830   -0.3643649276   -0.4403444244
      5  O        -1.4775959111    0.8502495643   -1.1676463064
      6  H         2.4883157078    1.1504803138    1.1410644130
      7  H         2.4413673890   -0.5507704516    0.8430845595
      8  H         0.3895712164    1.2339701430   -0.0325081186
      9  H         0.5780183234   -0.7878456966   -1.1441465606
     10  H         0.1689329533   -1.5330159951    0.4250497580
     11  H        -1.8742955247   -1.1923843948   -1.0032623453
     12  H        -1.9519741679   -0.2709893401    0.5178852600
     13  H        -2.3722267876    1.1915069453   -1.1758190784
   Point Group: c1    Number of degrees of freedom:    33


   Energy is   -269.452606580

 Hessian Updated using BFGS Update

 33 Hessian modes will be used to form the next step
  Hessian Eigenvalues:
     0.001611    0.004532    0.007640    0.009848    0.031373    0.048791
     0.053699    0.059166    0.061798    0.069111    0.080380    0.091748
     0.099102    0.108692    0.124176    0.134293    0.159625    0.160882
     0.164972    0.216323    0.225291    0.238434    0.314950    0.316354
     0.317939    0.332879    0.336263    0.341011    0.353041    0.366477
     0.418723    0.512428    0.558499

 Minimum Search - Taking Simple RFO Step
 Searching for Lamda that Minimizes Along All modes
 Value Taken    Lamda =   0.00000000
 Step Taken.  Stepsize is  0.005667

                             Maximum     Tolerance    Cnvgd?
         Gradient           0.000065      0.000100     YES
         Displacement       0.002974      0.000400      NO
         Energy change     -0.000001      0.000000      NO


 New Cartesian Coordinates Obtained by Inverse Iteration

 Displacement from previous Coordinates is:  0.005749
 Adding empirical dispersion correction 
 ----------------------------------------------------------------
 Doing -D3(0) with
 s6  =   1.00000
 s8  =   1.00000
 rs6 =   1.28100
 rs8 =   1.09400
 -D3 energy without 3body term =     -0.0026023047 hartrees
 ----------------------------------------------------------------
             Standard Nuclear Orientation (Angstroms)
    I     Atom           X                Y                Z
 ----------------------------------------------------------------
    1      C       2.2906231659     0.4194684477     0.3379094639
    2      O       0.6156030332     0.4505619567     0.4892319180
    3      C       0.0302544268    -0.6577064679    -0.2072116974
    4      C      -1.4289663439    -0.3643065656    -0.4404308144
    5      O      -1.4772978043     0.8508235399    -1.1667186746
    6      H       2.4886198363     1.1511217135     1.1394442592
    7      H       2.4412920274    -0.5505778286     0.8438472818
    8      H       0.3890049486     1.2339687152    -0.0317936878
    9      H       0.5783085916    -0.7882362254    -1.1437578329
   10      H       0.1683857770    -1.5330665664     0.4253471520
   11      H      -1.8738386153    -1.1919541776    -1.0041868472
   12      H      -1.9523368057    -0.2717611983     0.5176564664
   13      H      -2.3720832377     1.1915546568    -1.1758949870
 ----------------------------------------------------------------
 Nuclear Repulsion Energy =   191.2136027367 hartrees
 There are       21 alpha and       21 beta electrons
 Applying Cartesian multipole field
    Component          Value
    ---------          -----
     (2,0,0)        1.00000E-11
     (0,2,0)        2.00000E-11
     (0,0,2)       -3.00000E-10
 Nucleus-field energy     =    -0.0000000179 hartrees
 Requested basis set is def2-TZVP
 There are 87 shells and 203 basis functions
 A cutoff of  1.0D-11 yielded   3571 shell pairs
 There are     19731 function pairs (     24969 Cartesian)
 Smallest overlap matrix eigenvalue = 4.47E-04
 Guess MOs from SCF MO coefficient file
 Reading MOs from coefficient file
 Reading MOs from coefficient file

 -----------------------------------------------------------------------
  General SCF calculation program by
  Eric Jon Sundstrom, Paul Horn, Yuezhi Mao, Dmitri Zuev, Alec White,
  David Stuck, Shaama M.S., Shane Yost, Joonho Lee, David Small,
  Daniel Levine, Susi Lehtola, Hugh Burton, Evgeny Epifanovsky
 -----------------------------------------------------------------------
 Exchange:     0.1957 Hartree-Fock + 1.0000 wB97X-D3 + LR-HF
 Correlation:  1.0000 wB97X-D3
 Using SG-2 standard quadrature grid
 Dispersion:   Grimme D3
 using 16 threads for integral computing
 -------------------------------------------------------
 OpenMP Integral computing Module                
 Release: version 1.0, May 2013, Q-Chem Inc. Pittsburgh 
 -------------------------------------------------------
 using 16 threads for integral computing
 -------------------------------------------------------
 OpenMP Integral computing Module                
 Release: version 1.0, May 2013, Q-Chem Inc. Pittsburgh 
 -------------------------------------------------------
 -------------------------------------------------------
 OpenMP BLAS3 based DFT computing Module                
 Release: version 1.0, May 2013, Q-Chem Inc. Pittsburgh 
 -------------------------------------------------------
 A unrestricted SCF calculation will be
 performed using DIIS
 SCF converges when DIIS error is below 1.0e-08
 ---------------------------------------
  Cycle       Energy         DIIS error
 ---------------------------------------
    1    -269.4527462774      8.06e-06  
    2    -269.4526066240      1.29e-06  
    3    -269.4526066860      4.63e-07  
    4    -269.4526066906      3.66e-07  
    5    -269.4526066929      6.08e-08  
    6    -269.4526066930      2.17e-08  
    7    -269.4526066930      1.22e-08  
    8    -269.4526066930      4.45e-09  Convergence criterion met
 ---------------------------------------
 SCF time:   CPU 254.72s  wall 19.00s 
<S^2> =          0.000000000
 SCF   energy in the final basis set =     -269.4526066930
 Total energy in the final basis set =     -269.4526066930
 No wavefunction analysis requested
 Calculating analytic gradient of the SCF energy
 Gradient of SCF Energy
            1           2           3           4           5           6
    1  -0.0000080   0.0000019  -0.0000133   0.0000029  -0.0000176  -0.0000048
    2   0.0000029   0.0000315  -0.0000308  -0.0000378   0.0000109  -0.0000002
    3   0.0000002   0.0000255  -0.0000306   0.0000212  -0.0000061  -0.0000022
            7           8           9          10          11          12
    1   0.0000043   0.0000012   0.0000028   0.0000077   0.0000075   0.0000036
    2   0.0000097  -0.0000088   0.0000176   0.0000086   0.0000130  -0.0000060
    3  -0.0000110   0.0000061   0.0000005  -0.0000126  -0.0000029  -0.0000066
           13
    1   0.0000117
    2  -0.0000106
    3   0.0000185
 Max gradient component =       3.783E-05
 RMS gradient           =       1.436E-05
 Gradient time:  CPU 79.65 s  wall 5.99 s
 Geometry Optimization Parameters
   NAtoms,    NIC,     NZ,  NCons,   NDum,   NFix, NCnnct, MaxDiis
       13      79       0       0       0       0       0       0

 Cartesian Hessian Update
 Hessian Updated using BFGS Update


** GEOMETRY OPTIMIZATION IN DELOCALIZED INTERNAL COORDINATES **
   Searching for a Minimum

   Optimization Cycle:   9

                       Coordinates (Angstroms)
     ATOM                X               Y               Z
      1  C         2.2906231659    0.4194684477    0.3379094639
      2  O         0.6156030332    0.4505619567    0.4892319180
      3  C         0.0302544268   -0.6577064679   -0.2072116974
      4  C        -1.4289663439   -0.3643065656   -0.4404308144
      5  O        -1.4772978043    0.8508235399   -1.1667186746
      6  H         2.4886198363    1.1511217135    1.1394442592
      7  H         2.4412920274   -0.5505778286    0.8438472818
      8  H         0.3890049486    1.2339687152   -0.0317936878
      9  H         0.5783085916   -0.7882362254   -1.1437578329
     10  H         0.1683857770   -1.5330665664    0.4253471520
     11  H        -1.8738386153   -1.1919541776   -1.0041868472
     12  H        -1.9523368057   -0.2717611983    0.5176564664
     13  H        -2.3720832377    1.1915546568   -1.1758949870
   Point Group: c1    Number of degrees of freedom:    33


   Energy is   -269.452606693

 Hessian Updated using BFGS Update

 33 Hessian modes will be used to form the next step
  Hessian Eigenvalues:
     0.001601    0.004329    0.007621    0.009585    0.031014    0.045848
     0.052218    0.059242    0.061330    0.068526    0.080119    0.091230
     0.099255    0.107565    0.124938    0.134022    0.159611    0.160398
     0.165292    0.214297    0.237416    0.239968    0.313773    0.317403
     0.320335    0.332596    0.336414    0.340585    0.344388    0.362256
     0.421243    0.512420    0.566744

 Minimum Search - Taking Simple RFO Step
 Searching for Lamda that Minimizes Along All modes
 Value Taken    Lamda =   0.00000000
 Step Taken.  Stepsize is  0.001391

                             Maximum     Tolerance    Cnvgd?
         Gradient           0.000026      0.000100     YES
         Displacement       0.000667      0.000400      NO
         Energy change     -0.000000      0.000000     YES


                       Distance Matrix (Angstroms)
             C (  1)   O (  2)   C (  3)   C (  4)   O (  5)   H (  6)
   O (  2)  1.682129
   C (  3)  2.562563  1.433850
   C (  4)  3.880137  2.389257  1.506586
   O (  5)  4.080098  2.698632  2.338596  1.416464
   H (  6)  1.103167  2.102796  3.336001  4.487762  4.597507
   H (  7)  1.104384  2.112149  2.632357  4.082030  4.621866  1.727831
   H (  8)  2.101486  0.967750  1.933367  2.454891  2.217643  2.405628
   H (  9)  2.566303  2.050041  1.092941  2.168764  2.629175  3.552944
   H ( 10)  2.885122  2.034420  1.088791  2.160348  3.305432  3.619156
   H ( 11)  4.662687  3.335488  2.132173  1.095780  2.087247  5.395943
   H ( 12)  4.302652  2.667747  2.145939  1.095633  2.079177  4.704605
   H ( 13)  4.962716  3.499712  3.182662  1.962417  0.957509  5.384131
             H (  7)   H (  8)   H (  9)   H ( 10)   H ( 11)   H ( 12)
   H (  8)  2.857138
   H (  9)  2.734550  2.315516
   H ( 10)  2.511280  2.813207  1.784629
   H ( 11)  4.737821  3.457038  2.489075  2.516069
   H ( 12)  4.414534  2.837428  3.071028  2.469185  1.780147
   H ( 13)  5.502996  2.989042  3.553226  4.054814  2.441075  2.277191

 
 Final energy is   -269.452606693049     


 ******************************
 **  OPTIMIZATION CONVERGED  **
 ******************************

                       Coordinates (Angstroms)
     ATOM                X               Y               Z
      1  C         2.2906231659    0.4194684477    0.3379094639
      2  O         0.6156030332    0.4505619567    0.4892319180
      3  C         0.0302544268   -0.6577064679   -0.2072116974
      4  C        -1.4289663439   -0.3643065656   -0.4404308144
      5  O        -1.4772978043    0.8508235399   -1.1667186746
      6  H         2.4886198363    1.1511217135    1.1394442592
      7  H         2.4412920274   -0.5505778286    0.8438472818
      8  H         0.3890049486    1.2339687152   -0.0317936878
      9  H         0.5783085916   -0.7882362254   -1.1437578329
     10  H         0.1683857770   -1.5330665664    0.4253471520
     11  H        -1.8738386153   -1.1919541776   -1.0041868472
     12  H        -1.9523368057   -0.2717611983    0.5176564664
     13  H        -2.3720832377    1.1915546568   -1.1758949870

Z-matrix Print:
$molecule
0 1
O 
H  1 0.967750
C  1 1.433850 2 105.581382
H  3 1.088791 1 106.704626 2 -173.202789 0
H  3 1.092941 1 107.686820 2 69.001391 0
C  3 1.506586 1 108.666882 2 -52.641663 0
H  6 1.095633 3 110.105708 1 -62.917335 0
H  6 1.095780 3 109.012409 1 177.985883 0
O  6 1.416464 3 106.229517 1 57.440730 0
H  9 0.957509 6 110.003127 3 -167.340395 0
C  1 1.682129 2 101.518862 3 115.219821 0
H  11 1.103167 1 95.802529 2 82.699449 0
H  11 1.104384 1 96.365804 2 -173.466398 0
$end

 No wavefunction analysis requested
Archival summary:
1\1\nid00471\OPT\ProcedureUnspecified\BasisUnspecified\238\cgrambow\TueFeb1223:24:562019TueFeb1223:24:562019\0\\#,OPT,ProcedureUnspecified,BasisUnspecified,\\0,1\O\H,1,0.96775\C,1,1.43385,2,105.581\H,3,1.08879,1,106.705,2,-173.203,0\H,3,1.09294,1,107.687,2,69.0014,0\C,3,1.50659,1,108.667,2,-52.6417,0\H,6,1.09563,3,110.106,1,-62.9173,0\H,6,1.09578,3,109.012,1,177.986,0\O,6,1.41646,3,106.23,1,57.4407,0\H,9,0.957509,6,110.003,3,-167.34,0\C,1,1.68213,2,101.519,3,115.22,0\H,11,1.10317,1,95.8025,2,82.6994,0\H,11,1.10438,1,96.3658,2,-173.466,0\\\@

 Total job time:  279.88s(wall), 3724.78s(cpu) 
 Tue Feb 12 23:24:56 2019

        *************************************************************
[...]
 H          0.164  0.100 -0.486   -0.012  0.292  0.639    0.187  0.164  0.258
 H         -0.273 -0.108  0.187   -0.058 -0.028 -0.066   -0.014  0.047  0.448
 H          0.036 -0.186  0.203    0.024 -0.065  0.008    0.015  0.309 -0.057
 H         -0.192 -0.095  0.201   -0.007 -0.015  0.019    0.017 -0.067 -0.237
 H          0.013  0.078 -0.198    0.015  0.027 -0.105    0.003 -0.023  0.119
 H         -0.158 -0.030 -0.139   -0.024 -0.088 -0.036    0.037  0.134  0.021
 H          0.262  0.157 -0.080    0.043  0.056  0.081   -0.130 -0.147 -0.239
 TransDip  -0.011 -0.078  0.036   -0.028  0.174 -0.005    0.090  0.095  0.069

 Mode:                 4                      5                      6
 Frequency:       235.05                 274.67                 319.23
 Force Cnst:      0.0594                 0.0602                 0.1959
 Red. Mass:       1.8234                 1.3539                 3.2623
 IR Active:          YES                    YES                    YES
 IR Intens:       28.002                109.336                  7.408
 Raman Active:       YES                    YES                    YES
               X      Y      Z        X      Y      Z        X      Y      Z
 C          0.003  0.123  0.071   -0.004 -0.061 -0.040    0.297  0.121  0.056
 O          0.012 -0.112 -0.037   -0.014  0.058  0.049    0.072 -0.081 -0.022
 C         -0.020 -0.065 -0.080    0.024  0.032  0.055   -0.096 -0.073  0.107
 C         -0.024  0.063  0.093    0.028 -0.035 -0.066   -0.088  0.004 -0.124
 O          0.025 -0.030 -0.080   -0.043 -0.024 -0.053   -0.142  0.063 -0.015
 H         -0.170  0.149  0.091    0.102 -0.060 -0.068    0.035  0.126  0.121
 H          0.129  0.144  0.074   -0.058 -0.063 -0.027    0.345  0.134  0.071
 H         -0.029 -0.093  0.006    0.004  0.029 -0.004    0.133 -0.091 -0.057
 H         -0.114 -0.006 -0.144    0.103  0.004  0.105   -0.029 -0.373  0.186
 H          0.004 -0.117 -0.158   -0.005  0.054  0.091   -0.355  0.002  0.272
 H         -0.255  0.056  0.290    0.123 -0.050 -0.121    0.064  0.016 -0.268
 H          0.167  0.277  0.176   -0.056 -0.102 -0.110   -0.256 -0.136 -0.203
 H          0.180  0.395  0.523    0.119  0.423  0.813   -0.170 -0.010  0.009
 TransDip  -0.026  0.052  0.159    0.112  0.157  0.274    0.056 -0.066  0.002

 Mode:                 7                      8                      9
 Frequency:       463.55                 597.17                 773.84
 Force Cnst:      0.5307                 0.6200                 0.3878
 Red. Mass:       4.1923                 2.9511                 1.0992
 IR Active:          YES                    YES                    YES
 IR Intens:       35.742                 69.598                135.479
 Raman Active:       YES                    YES                    YES
               X      Y      Z        X      Y      Z        X      Y      Z
 C          0.318 -0.015 -0.018   -0.142  0.026  0.035   -0.032  0.007 -0.003
 O         -0.197  0.091  0.029    0.257 -0.017 -0.017   -0.034  0.008  0.060
 C         -0.115  0.094 -0.079   -0.103  0.115  0.024   -0.002 -0.020 -0.009
 C         -0.162 -0.113  0.032   -0.159 -0.056 -0.002   -0.004  0.002 -0.008
 O          0.168 -0.096  0.054    0.057 -0.069  0.013   -0.002  0.004  0.008
 H          0.185 -0.035  0.043   -0.093  0.060 -0.014   -0.005  0.061 -0.067
 H          0.052 -0.017  0.072    0.088  0.041 -0.021    0.242  0.020 -0.078
 H         -0.094  0.083 -0.024    0.251  0.079  0.134    0.723 -0.195 -0.578
 H         -0.311  0.404 -0.236   -0.340  0.257 -0.138    0.031  0.096 -0.006
 H          0.227 -0.011 -0.307    0.109  0.031 -0.147    0.043 -0.063 -0.083
 H         -0.158 -0.055 -0.057    0.186 -0.095 -0.229   -0.034  0.015 -0.008
 H         -0.224 -0.099 -0.005   -0.516 -0.218 -0.185    0.025 -0.003  0.007
 H          0.288  0.212 -0.021    0.157  0.189 -0.018   -0.005 -0.007 -0.014
 TransDip   0.167  0.085 -0.040   -0.258  0.067 -0.009    0.319 -0.131 -0.141

 Mode:                10                     11                     12
 Frequency:       888.16                 912.46                1049.81
 Force Cnst:      0.8119                 1.1395                 1.3400
 Red. Mass:       1.7468                 2.3228                 2.0637
 IR Active:          YES                    YES                    YES
 IR Intens:       24.670                 27.578                 77.456
 Raman Active:       YES                    YES                    YES
               X      Y      Z        X      Y      Z        X      Y      Z
 C          0.020 -0.009 -0.010    0.002 -0.008 -0.010    0.002 -0.037 -0.021
 O         -0.071 -0.075 -0.062   -0.054 -0.078 -0.036   -0.060 -0.109 -0.052
 C          0.018  0.021  0.121   -0.128  0.189 -0.054    0.146  0.157  0.051
 C          0.097  0.041  0.108    0.144  0.077 -0.013   -0.097 -0.087  0.013
 O         -0.018  0.053 -0.059    0.036 -0.108  0.065   -0.008  0.048 -0.018
 H         -0.147 -0.007  0.030   -0.224  0.025  0.017   -0.458  0.005  0.052
 H         -0.003  0.000  0.021    0.159  0.019 -0.007    0.317  0.009 -0.016
 H         -0.102 -0.148 -0.163    0.232  0.084  0.095    0.170  0.079  0.140
 H         -0.351  0.269 -0.139   -0.024 -0.181  0.063    0.274 -0.064  0.148
 H          0.311 -0.161 -0.199   -0.650  0.219  0.102    0.285  0.344  0.291
 H          0.536 -0.013 -0.158    0.383 -0.107  0.053   -0.202 -0.069  0.085
 H         -0.344 -0.117 -0.130    0.165 -0.057  0.016    0.014  0.009  0.067
 H         -0.080 -0.101  0.060    0.033 -0.128  0.124    0.073  0.258 -0.169
 TransDip   0.127 -0.052  0.081    0.106  0.126  0.033    0.227  0.129  0.106

 Mode:                13                     14                     15
 Frequency:      1104.73                1127.28                1171.88
 Force Cnst:      1.2554                 1.9544                 0.9617
 Red. Mass:       1.7459                 2.6103                 1.1885
 IR Active:          YES                    YES                    YES
 IR Intens:       51.470                 38.025                  7.604
 Raman Active:       YES                    YES                    YES
               X      Y      Z        X      Y      Z        X      Y      Z
 C         -0.002  0.015  0.010    0.018 -0.006 -0.027   -0.018 -0.026  0.030
 O         -0.028 -0.017  0.012    0.005 -0.035 -0.035   -0.033  0.026 -0.002
 C          0.124 -0.017 -0.079    0.068  0.026  0.130    0.008 -0.055 -0.046
 C         -0.069  0.139  0.086   -0.036  0.188 -0.183   -0.001  0.070  0.012
 O         -0.031 -0.087  0.016   -0.011 -0.156  0.107    0.017 -0.033 -0.000
 H          0.260  0.008 -0.050   -0.257 -0.052  0.090    0.031  0.078 -0.093
 H         -0.138 -0.015 -0.018   -0.109  0.022  0.085    0.408 -0.038 -0.137
 H         -0.064 -0.101 -0.107   -0.157 -0.144 -0.134    0.127  0.246  0.277
 H          0.273 -0.205  0.031    0.126  0.406  0.098   -0.160 -0.223 -0.121
 H         -0.175  0.026  0.054    0.228 -0.173 -0.187    0.343  0.205  0.235
 H          0.287  0.172 -0.258   -0.316  0.232 -0.038   -0.063  0.247 -0.199
 H         -0.316 -0.302 -0.006   -0.023  0.427 -0.183   -0.207  0.042 -0.098
 H          0.178  0.427 -0.293    0.002 -0.153  0.080   -0.099 -0.324  0.225
 TransDip   0.031  0.198 -0.112   -0.013  0.179 -0.083    0.056 -0.011  0.067

 Mode:                16                     17                     18
 Frequency:      1191.15                1221.62                1274.85
 Force Cnst:      1.0618                 1.0716                 1.1262
 Red. Mass:       1.2702                 1.2187                 1.1762
 IR Active:          YES                    YES                    YES
 IR Intens:        4.151                 30.878                 21.626
 Raman Active:       YES                    YES                    YES
               X      Y      Z        X      Y      Z        X      Y      Z
 C         -0.036 -0.005  0.101    0.001 -0.064  0.011    0.001  0.010  0.009
 O         -0.024 -0.033 -0.055    0.018  0.083 -0.001    0.010 -0.027 -0.024
 C          0.005  0.047  0.044   -0.027 -0.054  0.006   -0.017  0.055  0.021
 C         -0.002 -0.017 -0.035    0.020  0.015  0.017   -0.015 -0.023  0.065
 O         -0.004  0.004  0.014   -0.018 -0.010 -0.005    0.030  0.003 -0.048
 H          0.643  0.230 -0.327   -0.472  0.042  0.010    0.093  0.026 -0.032
 H          0.355 -0.134 -0.342    0.626 -0.038 -0.118   -0.086 -0.015 -0.027
 H         -0.215 -0.076 -0.044   -0.293  0.000 -0.003   -0.033 -0.061 -0.059
 H          0.038  0.134  0.045    0.128  0.181  0.066    0.267  0.203  0.170
 H         -0.054 -0.043 -0.068   -0.156 -0.185 -0.145   -0.170 -0.034 -0.069
 H         -0.001 -0.133  0.133    0.046  0.059 -0.063   -0.330  0.459 -0.362
 H          0.050  0.128 -0.019    0.115 -0.187  0.090    0.103 -0.356  0.174
 H          0.017  0.054 -0.039    0.068  0.204 -0.145   -0.110 -0.335  0.202
 TransDip   0.025  0.060 -0.003   -0.150 -0.066 -0.069    0.003 -0.086  0.121

 Mode:                19                     20                     21
 Frequency:      1297.55                1370.82                1421.34
 Force Cnst:      1.1874                 1.3633                 1.4533
 Red. Mass:       1.1970                 1.2313                 1.2210
 IR Active:          YES                    YES                    YES
 IR Intens:       44.075                 22.242                 54.856
 Raman Active:       YES                    YES                    YES
               X      Y      Z        X      Y      Z        X      Y      Z
 C         -0.005  0.013  0.003    0.001  0.015 -0.009    0.024 -0.005  0.018
 O         -0.008 -0.019 -0.013   -0.018 -0.009 -0.055    0.035 -0.018  0.044
 C         -0.058 -0.014  0.061   -0.089 -0.075 -0.003   -0.084  0.008 -0.059
 C          0.060  0.023 -0.044   -0.011  0.036  0.015   -0.034  0.040 -0.012
 O         -0.036 -0.029  0.003    0.005  0.007 -0.000    0.014  0.002 -0.003
 H          0.142  0.008 -0.023    0.133 -0.074  0.057   -0.157  0.144 -0.100
 H         -0.096  0.006  0.012   -0.027  0.053  0.085   -0.119 -0.104 -0.151
 H          0.151  0.110  0.127    0.291  0.280  0.283   -0.333 -0.346 -0.312
 H         -0.309  0.031 -0.085    0.568  0.327  0.317    0.167  0.046  0.076
 H          0.323  0.082  0.105    0.237 -0.059 -0.040    0.418  0.348  0.288
 H         -0.087  0.205 -0.171    0.228 -0.183  0.134    0.232 -0.132  0.029
 H          0.478 -0.315  0.219   -0.049 -0.049  0.002    0.165 -0.089  0.106
 H          0.128  0.373 -0.258    0.007  0.013  0.009   -0.034 -0.115  0.070
 TransDip   0.066  0.195 -0.053    0.074  0.076  0.108   -0.181 -0.072 -0.135

 Mode:                22                     23                     24
 Frequency:      1431.15                1470.98                1506.45
 Force Cnst:      1.2876                 1.9905                 1.4734
 Red. Mass:       1.0670                 1.5614                 1.1020
 IR Active:          YES                    YES                    YES
 IR Intens:       16.914                  1.956                  8.689
 Raman Active:       YES                    YES                    YES
               X      Y      Z        X      Y      Z        X      Y      Z
 C          0.048 -0.006  0.044    0.004  0.005  0.001    0.001  0.001 -0.002
 O         -0.003  0.006 -0.001    0.016 -0.013  0.008   -0.004 -0.008 -0.009
 C          0.014 -0.023  0.011   -0.088  0.005 -0.049    0.055 -0.069 -0.009
 C          0.010 -0.005  0.005    0.162 -0.083  0.053   -0.008  0.013 -0.010
 O         -0.004  0.000  0.002   -0.046 -0.013  0.018    0.004  0.005 -0.003
 H         -0.357  0.442 -0.325    0.018 -0.009  0.010    0.011 -0.012  0.011
 H         -0.422 -0.276 -0.441   -0.016  0.003  0.008   -0.012  0.010  0.021
 H          0.200  0.152  0.148   -0.079 -0.100 -0.092    0.034  0.016  0.018
 H          0.010  0.022  0.002    0.180  0.172  0.086   -0.167  0.657 -0.228
 H         -0.084 -0.101 -0.065    0.087  0.207  0.175   -0.361  0.248  0.502
 H         -0.035  0.009  0.016   -0.314  0.314 -0.130   -0.030 -0.067  0.107
 H         -0.068  0.019 -0.039   -0.403  0.396 -0.319   -0.036 -0.117 -0.008
 H          0.014  0.046 -0.024    0.086  0.298 -0.208   -0.010 -0.028  0.024
 TransDip   0.103  0.080 -0.019   -0.026 -0.018 -0.032   -0.079  0.046  0.022

 Mode:                25                     26                     27
 Frequency:      1520.35                2962.31                3030.07
 Force Cnst:      1.4899                 5.4605                 5.9715
 Red. Mass:       1.0940                 1.0561                 1.1039
 IR Active:          YES                    YES                    YES
 IR Intens:        5.718                 81.267                 97.561
 Raman Active:       YES                    YES                    YES
               X      Y      Z        X      Y      Z        X      Y      Z
 C          0.000  0.000 -0.000    0.019 -0.019  0.061   -0.004 -0.091 -0.022
 O         -0.001  0.002 -0.004   -0.001  0.000  0.000    0.000  0.001  0.000
 C          0.011 -0.017 -0.002   -0.000 -0.000 -0.000   -0.002  0.002  0.002
 C         -0.060 -0.054  0.028    0.000  0.000 -0.000   -0.002 -0.002  0.001
 O         -0.006 -0.005  0.005   -0.000  0.000 -0.000   -0.000  0.000  0.000
 H         -0.002  0.002 -0.000   -0.114 -0.466 -0.429    0.128  0.508  0.553
 H         -0.009  0.000 -0.001   -0.099  0.694 -0.300   -0.078  0.558 -0.298
 H          0.044  0.043  0.039   -0.002 -0.005  0.006   -0.007 -0.004 -0.002
 H          0.010  0.113 -0.019   -0.002 -0.000  0.002    0.026 -0.006 -0.043
 H         -0.097  0.005  0.057    0.002 -0.001  0.003    0.005 -0.018  0.015
 H          0.408  0.102 -0.534   -0.001 -0.002 -0.001    0.016  0.028  0.021
 H          0.325  0.609  0.151   -0.001  0.000  0.003    0.014 -0.003 -0.028
 H          0.002  0.012 -0.002    0.000  0.000 -0.000   -0.000 -0.000 -0.000
 TransDip   0.072 -0.007  0.024    0.082 -0.079  0.265   -0.038 -0.307 -0.067

 Mode:                28                     29                     30
 Frequency:      3034.80                3074.53                3089.73
 Force Cnst:      5.7363                 6.0904                 6.0585
 Red. Mass:       1.0571                 1.0936                 1.0771
 IR Active:          YES                    YES                    YES
 IR Intens:       36.301                  8.070                 38.934
 Raman Active:       YES                    YES                    YES
               X      Y      Z        X      Y      Z        X      Y      Z
 C         -0.000 -0.004 -0.001    0.000  0.003  0.001    0.000 -0.004 -0.001
 O         -0.000  0.000 -0.000    0.001  0.001  0.001   -0.000 -0.000 -0.001
 C         -0.001 -0.003  0.003   -0.026  0.018  0.027    0.035 -0.034 -0.033
 C          0.053  0.035 -0.019    0.004 -0.040 -0.067    0.001 -0.028 -0.046
 O         -0.001  0.001 -0.001   -0.000 -0.000  0.000   -0.000  0.000  0.000
 H          0.007  0.026  0.028   -0.004 -0.019 -0.020    0.004  0.022  0.023
 H         -0.003  0.024 -0.013    0.003 -0.019  0.012   -0.003  0.022 -0.014
 H         -0.002 -0.004  0.000    0.001  0.005 -0.004    0.003 -0.006  0.004
 H          0.006 -0.003 -0.011    0.264 -0.062 -0.469   -0.355  0.081  0.623
 H          0.001  0.036 -0.024    0.023 -0.171  0.131   -0.044  0.311 -0.232
 H         -0.278 -0.519 -0.379    0.240  0.425  0.298    0.177  0.298  0.213
 H         -0.331  0.076  0.621   -0.278  0.052  0.494   -0.196  0.039  0.337
 H          0.002  0.007 -0.002    0.003  0.002  0.000    0.003  0.000  0.001
 TransDip   0.123  0.125 -0.081    0.037 -0.019 -0.081   -0.037 -0.149 -0.128

 Mode:                31                     32                     33
 Frequency:      3160.63                3774.94                3915.89
 Force Cnst:      6.5041                 8.9481                 9.6383
 Red. Mass:       1.1051                 1.0658                 1.0668
 IR Active:          YES                    YES                    YES
 IR Intens:        8.476                139.345                 62.627
 Raman Active:       YES                    YES                    YES
               X      Y      Z        X      Y      Z        X      Y      Z
 C          0.000  0.000  0.000    0.001 -0.000  0.001   -0.000  0.000  0.000
 O         -0.001  0.001 -0.001    0.014 -0.051  0.032    0.000 -0.000  0.000
 C         -0.007 -0.056  0.075   -0.000 -0.002  0.001    0.000  0.000 -0.000
 C         -0.003  0.001  0.006   -0.000  0.001 -0.000   -0.001 -0.001  0.001
 O         -0.000  0.000 -0.000   -0.000 -0.000  0.000   -0.058  0.024 -0.002
 H         -0.002 -0.003 -0.004    0.000 -0.002 -0.001    0.000  0.000  0.000
 H         -0.002  0.001 -0.000   -0.004  0.005 -0.003    0.000 -0.000 -0.000
 H          0.007 -0.005  0.013   -0.218  0.822 -0.522   -0.001  0.002 -0.000
 H          0.217 -0.057 -0.362   -0.000  0.004  0.004    0.001 -0.000 -0.001
 H         -0.120  0.717 -0.526    0.000  0.013 -0.007   -0.000 -0.001  0.000
 H         -0.002 -0.005 -0.004    0.000 -0.003  0.000   -0.001 -0.003  0.001
 H          0.038 -0.008 -0.060   -0.001 -0.001  0.001    0.003 -0.003 -0.000
 H         -0.000  0.001 -0.001   -0.002 -0.001  0.000    0.929 -0.365  0.016
 TransDip   0.006 -0.057  0.073   -0.182  0.295 -0.151    0.211 -0.134  0.040

 STANDARD THERMODYNAMIC QUANTITIES AT   298.15 K  AND     1.00 ATM

   This Molecule has  0 Imaginary Frequencies
   Zero point vibrational energy:       70.161 kcal/mol

   Atom    1 Element C  Has Mass   12.00000
   Atom    2 Element O  Has Mass   15.99491
   Atom    3 Element C  Has Mass   12.00000
   Atom    4 Element C  Has Mass   12.00000
   Atom    5 Element O  Has Mass   15.99491
   Atom    6 Element H  Has Mass    1.00783
   Atom    7 Element H  Has Mass    1.00783
   Atom    8 Element H  Has Mass    1.00783
   Atom    9 Element H  Has Mass    1.00783
   Atom   10 Element H  Has Mass    1.00783
   Atom   11 Element H  Has Mass    1.00783
   Atom   12 Element H  Has Mass    1.00783
   Atom   13 Element H  Has Mass    1.00783
   Molecular Mass:    76.052460 amu
   Principal axes and moments of inertia in amu*Bohr^2:
                             1           2           3
    Eigenvalues --      147.89379   664.48646   743.64083
          X               0.93033     0.07114    -0.35974
          Y               0.01360     0.97363     0.22771
          Z               0.36646    -0.21674     0.90484
   Rotational Symmetry Number is   1
   The Molecule is an Asymmetric Top
   Translational Enthalpy:        0.889 kcal/mol
   Rotational Enthalpy:           0.889 kcal/mol
   Vibrational Enthalpy:         72.772 kcal/mol
   gas constant (RT):             0.592 kcal/mol
   Translational Entropy:        38.902  cal/mol.K
   Rotational Entropy:           25.794  cal/mol.K
   Vibrational Entropy:          15.700  cal/mol.K

   Total Enthalpy:               75.142 kcal/mol
   Total Entropy:                80.396  cal/mol.K
Archival summary:
1\1\nid00471\FREQ\ProcedureUnspecified\BasisUnspecified\238\cgrambow\TueFeb1223:47:052019TueFeb1223:47:052019\0\\#,FREQ,ProcedureUnspecified,BasisUnspecified,\\0,1\O\H,1,0.96775\C,1,1.43385,2,105.581\H,3,1.08879,1,106.705,2,-173.203,0\H,3,1.09294,1,107.687,2,69.0014,0\C,3,1.50659,1,108.667,2,-52.6417,0\H,6,1.09563,3,110.106,1,-62.9173,0\H,6,1.09578,3,109.012,1,177.986,0\O,6,1.41646,3,106.23,1,57.4407,0\H,9,0.957509,6,110.003,3,-167.34,0\C,1,1.68213,2,101.519,3,115.22,0\H,11,1.10317,1,95.8025,2,82.6994,0\H,11,1.10438,1,96.3658,2,-173.466,0\\\@

 Total job time:  1328.61s(wall), 4626.59s(cpu) 
 Tue Feb 12 23:47:05 2019

        *************************************************************
        *                                                           *
        *  Thank you very much for using Q-Chem.  Have a nice day.  *
        *                                                           *
        *************************************************************


