
Running Job 1 of 3 ts_optfreq0308.in
qchem ts_optfreq0308.in_18671.0 /tmp/qchem18671/ 1
/global/common/cori/software/qchem/5.1/exe/qcprog.exe ts_optfreq0308.in_18671.0 /tmp/qchem18671/
Check license passed

                  Welcome to Q-Chem
     A Quantum Leap Into The Future Of Chemistry


 Q-Chem 5.1, Q-Chem, Inc., Pleasanton, CA (2018)

 Yihan Shao,  Zhengting Gan,  E. Epifanovsky,  A. T. B. Gilbert,  M. Wormit,  
 J. Kussmann,  A. W. Lange,  A. Behn,  Jia Deng,  Xintian Feng,  D. Ghosh,  
 M. Goldey,  P. R. Horn,  L. D. Jacobson,  I. Kaliman,  T. Kus,  A. Landau,  
 Jie Liu,  E. I. Proynov,  R. M. Richard,  R. P. Steele,  E. J. Sundstrom,  
 H. L. Woodcock III,  P. M. Zimmerman,  D. Zuev,  B. Albrecht,  E. Alguire,  
 S. A. Baeppler,  D. Barton,  Z. Benda,  Y. A. Bernard,  E. J. Berquist,  
 K. B. Bravaya,  H. Burton,  D. Casanova,  Chun-Min Chang,  Yunqing Chen,  
 A. Chien,  K. D. Closser,  M. P. Coons,  S. Coriani,  S. Dasgupta,  
 A. L. Dempwolff,  M. Diedenhofen,  Hainam Do,  R. G. Edgar,  Po-Tung Fang,  
 S. Faraji,  S. Fatehi,  Qingguo Feng,  K. D. Fenk,  J. Fosso-Tande,  
 Qinghui Ge,  A. Ghysels,  G. Gidofalvi,  J. Gomes,  J. Gonthier,  A. Gunina,  
 D. Hait,  M. W. D. Hanson-Heine,  P. H. P. Harbach,  A. W. Hauser,  
 J. E. Herr,  E. G. Hohenstein,  Z. C. Holden,  Kerwin Hui,  B. C. Huynh,  
 T.-C. Jagau,  Hyunjun Ji,  B. Kaduk,  K. Khistyaev,  Jaehoon Kim,  
 P. Klunzinger,  K. Koh,  D. Kosenkov,  L. Koulias,  T. Kowalczyk,  
 C. M. Krauter,  A. Kunitsa,  Ka Un Lao,  A. Laurent,  K. V. Lawler,  
 Joonho Lee,  D. Lefrancois,  S. Lehtola,  D. S. Levine,  Yi-Pei Li,  
 You-Sheng Lin,  Fenglai Liu,  E. Livshits,  A. Luenser,  P. Manohar,  
 E. Mansoor,  S. F. Manzer,  Shan-Ping Mao,  Yuezhi Mao,  N. Mardirossian,  
 A. V. Marenich,  T. Markovich,  L. A. Martinez-Martinez,  S. A. Maurer,  
 N. J. Mayhall,  S. C. McKenzie,  J.-M. Mewes,  A. F. Morrison,  
 J. W. Mullinax,  K. Nanda,  T. S. Nguyen-Beck,  R. Olivares-Amaya,  
 J. A. Parkhill,  T. M. Perrine,  F. Plasser,  P. Pokhilko,  S. Prager,  
 A. Prociuk,  E. Ramos,  D. R. Rehn,  F. Rob,  M. Schneider,  N. Sergueev,  
 S. M. Sharada,  S. Sharma,  D. W. Small,  T. Stauch,  T. Stein,  
 Yu-Chuan Su,  A. J. W. Thom,  A. Tkatchenko,  T. Tsuchimochi,  N. M. Tubman,  
 L. Vogt,  M. L. Vidal,  O. Vydrov,  M. A. Watson,  J. Wenzel,  
 M. de Wergifosse,  T. A. Wesolowski,  A. White,  J. Witte,  A. Yamada,  
 Jun Yang,  K. Yao,  S. Yeganeh,  S. R. Yost,  Zhi-Qiang You,  A. Zech,  
 Igor Ying Zhang,  Xing Zhang,  Yan Zhao,  Ying Zhu,  B. R. Brooks,  
 G. K. L. Chan,  C. J. Cramer,  M. S. Gordon,  W. J. Hehre,  A. Klamt,  
 M. W. Schmidt,  C. D. Sherrill,  D. G. Truhlar,  A. Aspuru-Guzik,  R. Baer,  
 A. T. Bell,  N. A. Besley,  Jeng-Da Chai,  R. A. DiStasio Jr.,  A. Dreuw,  
 B. D. Dunietz,  T. R. Furlani,  Chao-Ping Hsu,  Yousung Jung,  Jing Kong,  
 D. S. Lambrecht,  WanZhen Liang,  C. Ochsenfeld,  V. A. Rassolov,  
 L. V. Slipchenko,  J. E. Subotnik,  T. Van Voorhis,  J. M. Herbert,  
 A. I. Krylov,  P. M. W. Gill,  M. Head-Gordon

 Contributors to earlier versions of Q-Chem not listed above: 
 R. D. Adamson,  B. Austin,  J. Baker,  G. J. O. Beran,  K. Brandhorst,  
 S. T. Brown,  E. F. C. Byrd,  A. K. Chakraborty,  C.-L. Cheng,  
 Siu Hung Chien,  D. M. Chipman,  D. L. Crittenden,  H. Dachsel,  
 R. J. Doerksen,  A. D. Dutoi,  L. Fusti-Molnar,  W. A. Goddard III,  
 A. Golubeva-Zadorozhnaya,  S. R. Gwaltney,  G. Hawkins,  A. Heyden,  
 S. Hirata,  G. Kedziora,  F. J. Keil,  C. Kelley,  Jihan Kim,  R. A. King,  
 R. Z. Khaliullin,  P. P. Korambath,  W. Kurlancheek,  A. M. Lee,  M. S. Lee,  
 S. V. Levchenko,  Ching Yeh Lin,  D. Liotard,  R. C. Lochan,  I. Lotan,  
 P. E. Maslen,  N. Nair,  D. P. O'Neill,  D. Neuhauser,  E. Neuscamman,  
 C. M. Oana,  R. Olson,  B. Peters,  R. Peverati,  P. A. Pieniazek,  
 Y. M. Rhee,  J. Ritchie,  M. A. Rohrdanz,  E. Rosta,  N. J. Russ,  
 H. F. Schaefer III,  N. E. Schultz,  N. Shenvi,  A. C. Simmonett,  A. Sodt,  
 D. Stuck,  K. S. Thanthiriwatte,  V. Vanovschi,  Tao Wang,  A. Warshel,  
 C. F. Williams,  Q. Wu,  X. Xu,  W. Zhang

 Please cite Q-Chem as follows:
 Y. Shao et al., Mol. Phys. 113, 184-215 (2015)
 DOI: 10.1080/00268976.2014.952696

 Q-Chem 5.1.0 for Intel X86 EM64T Linux

 Parts of Q-Chem use Armadillo 8.300.2 (Tropical Shenanigans).
 http://arma.sourceforge.net/

 Q-Chem begins on Tue Feb 12 23:30:30 2019  

Host: cori07
0

     Scratch files written to /tmp/qchem18671//
 Jun2518 |scratch|qcdevops|jenkins|workspace|build_RNUM -1
Processing $rem in /global/common/cori/software/qchem/5.1/config/preferences.
 MEM_TOTAL  96000 

Checking the input file for inconsistencies... 	...done.

--------------------------------------------------------------
User input:
--------------------------------------------------------------
$molecule
0 1
C   2.3047324814   0.6777757166   0.4056647442
O   0.4398353279   0.5690193014   0.4769048157
C  -0.0582036219  -0.6302377152  -0.1824900430
C  -1.5464925602  -0.4713056988  -0.4695483908
O  -1.8115411260   0.5881802051  -1.3826028376
H   2.4168467692   0.9905908865   1.4645888419
H   2.5038560765  -0.4158073542   0.4254763771
H   0.7676337216   1.2029518936  -0.2300425072
H   0.5091972863  -0.7909123855  -1.1095783951
H   0.1287601573  -1.4594522055   0.5115535021
H  -1.9064438099  -1.3916787906  -0.9503923149
H  -2.0964062492  -0.3486988611   0.4798966981
H  -1.6853684530   1.4231330076  -0.8961124906
$end

$rem
JOBTYPE                   FREQ
METHOD                    wB97X-D3
BASIS                     def2-TZVP
UNRESTRICTED              TRUE
SCF_ALGORITHM             DIIS
MAX_SCF_CYCLES            100
SCF_CONVERGENCE           8
SYM_IGNORE                TRUE
SYMMETRY                  FALSE
WAVEFUNCTION_ANALYSIS     FALSE
$end

--------------------------------------------------------------
 Adding empirical dispersion correction 
 ----------------------------------------------------------------
 Doing -D3(0) with
 s6  =   1.00000
 s8  =   1.00000
 rs6 =   1.28100
 rs8 =   1.09400
 -D3 energy without 3body term =     -0.0028422271 hartrees
 ----------------------------------------------------------------
             Standard Nuclear Orientation (Angstroms)
    I     Atom           X                Y                Z
 ----------------------------------------------------------------
    1      C       2.3047324814     0.6777757166     0.4056647442
    2      O       0.4398353279     0.5690193014     0.4769048157
    3      C      -0.0582036219    -0.6302377152    -0.1824900430
    4      C      -1.5464925602    -0.4713056988    -0.4695483908
    5      O      -1.8115411260     0.5881802051    -1.3826028376
    6      H       2.4168467692     0.9905908865     1.4645888419
    7      H       2.5038560765    -0.4158073542     0.4254763771
    8      H       0.7676337216     1.2029518936    -0.2300425072
    9      H       0.5091972863    -0.7909123855    -1.1095783951
   10      H       0.1287601573    -1.4594522055     0.5115535021
   11      H      -1.9064438099    -1.3916787906    -0.9503923149
   12      H      -2.0964062492    -0.3486988611     0.4798966981
   13      H      -1.6853684530     1.4231330076    -0.8961124906
 ----------------------------------------------------------------
 Nuclear Repulsion Energy =   185.3054713685 hartrees
 There are       21 alpha and       21 beta electrons
 Requested basis set is def2-TZVP
 There are 87 shells and 203 basis functions

 Total QAlloc Memory Limit  96000 MB
 Mega-Array Size       188 MB
 MEM_STATIC part       192 MB

                       Distance Matrix (Angstroms)
             C (  1)   O (  2)   C (  3)   C (  4)   O (  5)   H (  6)
   O (  2)  1.869424
   C (  3)  2.764108  1.456387
   C (  4)  4.113189  2.433834  1.524029
   O (  5)  4.488835  2.920074  2.449287  1.423527
   H (  6)  1.109839  2.249848  3.386123  4.646083  5.113482
   H (  7)  1.111740  2.287512  2.641922  4.148430  4.785373  1.750794
   H (  8)  1.744307  1.004538  2.011182  2.866301  2.891104  2.374190
   H (  9)  2.770732  2.090731  1.098751  2.176614  2.713349  3.665954
   H ( 10)  3.051854  2.052478  1.097383  2.178409  3.397852  3.485158
   H ( 11)  4.884213  3.374395  2.141368  1.099028  2.028707  5.495287
   H ( 12)  4.519865  2.697172  2.161548  1.104031  2.104233  4.809654
   H ( 13)  4.262756  2.670427  2.715374  1.946829  0.974545  4.752702
             H (  7)   H (  8)   H (  9)   H ( 10)   H ( 11)   H ( 12)
   H (  8)  2.462632
   H (  9)  2.544752  2.194508
   H ( 10)  2.595705  2.836639  1.794365
   H ( 11)  4.721873  3.794958  2.494310  2.506778
   H ( 12)  4.601074  3.333820  3.084016  2.487195  1.780343
   H ( 13)  4.762132  2.551343  3.124689  3.685361  2.824002  2.280733

 
 A cutoff of  1.0D-11 yielded   3550 shell pairs
 There are     19466 function pairs (     24592 Cartesian)
 
 -------------------------------------------------------
 OpenMP Integral Computing Module                       
 Release: version 1.0, May 2013, Q-Chem Inc. Pittsburgh 
 -------------------------------------------------------
 Integral Job Info:
 Integral job number is                      11
 Integral operator is                         1
 short-range coefficients              19572800
 long-range coefficients              100000000
 Omega coefficients                         250
 if combine SR and LR in K                    1
 Integral screening is                        0
 Integral computing path is                   2
 max size of driver memory is            800000
 size of driver memory is                776718
 size of scratch memory is              4473992
 max col of scratch BK array              10000
 max len of scratch array in speh3          662
 max len of scratch index in speh4           32
 max int batch size is                      520
 min int batch size is                       52
 fixed nKL is                                52
 max L of basis functions is                  3
 order of int derivative is                   0
 number of shells is                         87
 number of basis is                         228
 number of cartesian basis is               228
 number of contracted shell pairs          3550
 number of primitive shell pairs           8043
 maxK2 (contraction) of shell pair           36
 max number of K2 of shell pair               1
 max number of CS2 of shell pair            569
 max number of PS2 of shell pair            984
 mem total for path MDJ                  561794
 -------------------------------------------------------
 Smallest overlap matrix eigenvalue = 4.34E-04
 Guess from superposition of atomic densities
 Warning:  Energy on first SCF cycle will be non-variational
 SAD guess density has 42.000000 electrons

 -----------------------------------------------------------------------
  General SCF calculation program by
  Eric Jon Sundstrom, Paul Horn, Yuezhi Mao, Dmitri Zuev, Alec White,
  David Stuck, Shaama M.S., Shane Yost, Joonho Lee, David Small,
  Daniel Levine, Susi Lehtola, Hugh Burton, Evgeny Epifanovsky
 -----------------------------------------------------------------------
 Exchange:     0.1957 Hartree-Fock + 1.0000 wB97X-D3 + LR-HF
 Correlation:  1.0000 wB97X-D3
 Using SG-2 standard quadrature grid
 Dispersion:   Grimme D3
 using 16 threads for integral computing
 -------------------------------------------------------
 OpenMP Integral computing Module                
 Release: version 1.0, May 2013, Q-Chem Inc. Pittsburgh 
 -------------------------------------------------------
 using 16 threads for integral computing
 -------------------------------------------------------
 OpenMP Integral computing Module                
 Release: version 1.0, May 2013, Q-Chem Inc. Pittsburgh 
 -------------------------------------------------------
 -------------------------------------------------------
 OpenMP BLAS3 based DFT computing Module                
 Release: version 1.0, May 2013, Q-Chem Inc. Pittsburgh 
 -------------------------------------------------------
 A unrestricted SCF calculation will be
 performed using DIIS
 SCF converges when DIIS error is below 1.0e-08
 ---------------------------------------
  Cycle       Energy         DIIS error
 ---------------------------------------
    1    -270.0654871545      1.74e-02  
    2    -269.3696878767      2.04e-03  
    3    -269.3898007734      1.99e-03  
    4    -269.4418306495      2.41e-04  
    5    -269.4427741658      6.87e-05  
    6    -269.4428832649      2.91e-05  
    7    -269.4428995000      1.23e-05  
    8    -269.4429024301      3.67e-06  
    9    -269.4429028656      8.10e-07  
   10    -269.4429029086      3.16e-07  
   11    -269.4429029126      9.00e-08  
   12    -269.4429029130      2.08e-08  
   13    -269.4429029130      7.51e-09  Convergence criterion met
 ---------------------------------------
 SCF time:   CPU 377.88s  wall 30.00s 
<S^2> =          0.000000000
 SCF   energy in the final basis set =     -269.4429029130
 Total energy in the final basis set =     -269.4429029130
 No wavefunction analysis requested
 Calculating MO derivatives via CPSCF
 D1JvT checksum  = 1240044 34671.3966553684
 D1KAT checksum  = 2626572 3288.0239081436
 D1JvT checksum  = 1240044 22724.7221133361
 D1KAT checksum  = 2626572 1452.8607944821
   1         3          39      0.158759    0.023469
   2         3          39      0.035265    0.006610
   3         3          39      0.005619    0.001173
   4         3          39      0.000696    0.000136
   5        16          26      0.000066    0.000014
   6        40           2      0.000003    0.000001
   7        42           0      0.000000    0.000000    Roots Converged
 Time for AOints: 173.3 s (CPU) 11.7 s (wall)
 ------------------------------------------------------------------------------
                     AOints        : Timing summary (seconds)
 ------------------------------------------------------------------------------
     job step          cpu (% of tot)      sys (% of tot)     wall (% of tot)
 ------------------------------------------------------------------------------
  cpscf_lag         0.1506E+04 (44.1)   0.4016E-02 (60.9)   0.3339E+03 (42.1)
  iterzp            0.1733E+04 (50.8)   0.2115E-02 (32.1)   0.4478E+03 (56.4)
  make_fx           0.0000E+00 ( 0.0)   0.0000E+00 ( 0.0)   0.0000E+00 ( 0.0)
  AOints            0.1733E+03 ( 5.1)   0.4560E-03 ( 6.9)   0.1175E+02 ( 1.5)
 ------------------------------------------------------------------------------
   Grand Totals     0.3413E+04          0.6593E-02          0.7937E+03
 ------------------------------------------------------------------------------
 Calculating analytic Hessian of the SCF energy
 Polarizability Matrix (a.u.)
            1           2           3
    1 -62.2695339  -3.7866506  -5.7152107
    2  -3.7866506 -49.9038990  -0.5806416
    3  -5.7152107  -0.5806416 -46.1003711
 Running MAKENN_D3_FD2ND
 
 Direct stationary perturbation theory relativistic correction:
 
 rels  =       0.087170824527
 relv  =      -0.377051229066
 rel2e =       0.000000000000
 E_rel =      -0.289880404539
 
 Hessian of the SCF Energy
            1           2           3           4           5           6
    1   0.0888339  -0.0398696   0.0309099  -0.0207661  -0.0287731   0.0344478
    2  -0.0398696   0.3686494   0.0640795   0.0234622  -0.0207527  -0.0049137
    3   0.0309099   0.0640795   0.3318820  -0.0080386  -0.0141987  -0.0084687
    4  -0.0207661   0.0234622  -0.0080386   0.1501552   0.1073479  -0.0311195
    5  -0.0287731  -0.0207527  -0.0141987   0.1073479   0.3739768  -0.0599107
    6   0.0344478  -0.0049137  -0.0084687  -0.0311195  -0.0599107   0.3459803
    7  -0.0059280  -0.0121905  -0.0059696  -0.0770166  -0.0151317  -0.0018417
    8  -0.0127440   0.0001594   0.0034517  -0.0188415  -0.1444605  -0.0237331
    9  -0.0005276  -0.0024625  -0.0029223  -0.0143348  -0.0485589  -0.1146475
   10  -0.0000056   0.0000270  -0.0004635  -0.0145153  -0.0068752  -0.0095697
   11   0.0036138  -0.0021845  -0.0013055  -0.0434568  -0.0130279  -0.0104204
   12   0.0016042  -0.0003506  -0.0000757  -0.0236894  -0.0048426  -0.0058766
   13   0.0005289   0.0003532  -0.0000546   0.0006527   0.0016027   0.0006105
   14  -0.0003127   0.0004898  -0.0000815  -0.0000613   0.0058144  -0.0019006
   15   0.0006236   0.0001324   0.0001398   0.0003513  -0.0001556   0.0014839
   16  -0.0349909  -0.0021211  -0.0089133  -0.0065502  -0.0067324  -0.0196770
   17   0.0022906  -0.0497977  -0.0486306   0.0025774   0.0000208  -0.0048420
   18  -0.0305589  -0.0891430  -0.2799356   0.0003978   0.0011555   0.0067296
   19  -0.0399782   0.0255266  -0.0004288  -0.0134477   0.0198804  -0.0030944
   20   0.0483649  -0.2901035  -0.0109249  -0.0018387   0.0061214  -0.0009302
   21  -0.0142962   0.0270729  -0.0302661  -0.0002516  -0.0063366   0.0000691
   22   0.0093439   0.0054371  -0.0066035  -0.0190775  -0.0462332   0.0397424
   23   0.0228803  -0.0086562   0.0073730  -0.0711632  -0.1590341   0.1227833
   24  -0.0225430   0.0056512  -0.0104747   0.0759266   0.1634572  -0.2276647
   25   0.0022877   0.0009049  -0.0002948   0.0046131  -0.0070974  -0.0146730
   26   0.0030530   0.0009820   0.0003442   0.0066408  -0.0185368  -0.0327651
   27   0.0008519  -0.0000828  -0.0000202   0.0012374  -0.0124548  -0.0116292
   28   0.0009485  -0.0005376   0.0003082  -0.0006700  -0.0151487   0.0070443
   29   0.0009525   0.0009570  -0.0000647  -0.0053508  -0.0333721   0.0149595
   30   0.0001061   0.0003168   0.0001582  -0.0000799  -0.0181063   0.0127325
   31   0.0012399  -0.0004102  -0.0003756  -0.0094573  -0.0012640  -0.0018158
   32   0.0000840   0.0001576   0.0000245   0.0015629   0.0019206   0.0005653
   33   0.0004466  -0.0000316   0.0000554  -0.0026036  -0.0001822   0.0008653
   34  -0.0005757  -0.0001349  -0.0002699   0.0035707  -0.0000446  -0.0001755
   35  -0.0002749   0.0000049   0.0000274   0.0004198   0.0010624   0.0011656
   36  -0.0002589  -0.0000036   0.0000334   0.0007638   0.0009705   0.0007952
   37  -0.0009383  -0.0004472   0.0001941   0.0025091  -0.0015308   0.0001217
   38   0.0007351   0.0000944  -0.0000945  -0.0012986   0.0002676  -0.0000579
   39  -0.0008056  -0.0002648  -0.0001055   0.0014407  -0.0008369  -0.0003692
            7           8           9          10          11          12
    1  -0.0059280  -0.0127440  -0.0005276  -0.0000056   0.0036138   0.0016042
    2  -0.0121905   0.0001594  -0.0024625   0.0000270  -0.0021845  -0.0003506
    3  -0.0059696   0.0034517  -0.0029223  -0.0004635  -0.0013055  -0.0000757
    4  -0.0770166  -0.0188415  -0.0143348  -0.0145153  -0.0434568  -0.0236894
    5  -0.0151317  -0.1444605  -0.0485589  -0.0068752  -0.0130279  -0.0048426
    6  -0.0018417  -0.0237331  -0.1146475  -0.0095697  -0.0104204  -0.0058766
    7   0.5001027  -0.0395081  -0.0557956  -0.1935818   0.0244473  -0.0045000
    8  -0.0395081   0.5006730  -0.0816236   0.0032889  -0.0740312  -0.0029382
    9  -0.0557956  -0.0816236   0.5873137  -0.0028396   0.0039556  -0.0836052
   10  -0.1935818   0.0032889  -0.0028396   0.4931190   0.0301124  -0.0316902
   11   0.0244473  -0.0740312   0.0039556   0.0301124   0.5652475   0.0680813
   12  -0.0045000  -0.0029382  -0.0836052  -0.0316902   0.0680813   0.5575077
   13  -0.0054140   0.0321559  -0.0291913  -0.0695331   0.0113783  -0.0204577
   14   0.0053931  -0.0188036   0.0141682   0.0241268  -0.1689926   0.0853508
   15  -0.0088368   0.0173491  -0.0108299  -0.0196047   0.0404020  -0.1513389
   16  -0.0032238   0.0020381  -0.0012773  -0.0000783  -0.0011558  -0.0003685
   17  -0.0018021  -0.0010678  -0.0010490  -0.0001273  -0.0003357   0.0000114
   18   0.0010691  -0.0000115   0.0002079   0.0003119   0.0003723   0.0004370
   19   0.0028926   0.0028363   0.0004760  -0.0001206   0.0006974   0.0001470
   20  -0.0007008   0.0003435  -0.0013786   0.0001001   0.0002999   0.0004382
   21  -0.0008600   0.0004444   0.0021385  -0.0000347  -0.0001979  -0.0006459
   22  -0.0078502  -0.0114644   0.0020622  -0.0013040  -0.0037702   0.0014157
   23  -0.0084038  -0.0261377   0.0199165  -0.0005708   0.0007458  -0.0004034
   24  -0.0037410  -0.0145374   0.0152141   0.0004203  -0.0023138   0.0005315
   25  -0.1216746   0.0188631   0.1144308  -0.0180028   0.0022098   0.0293626
   26   0.0148744  -0.0548055  -0.0174078   0.0021653   0.0007284  -0.0012654
   27   0.1110878  -0.0248010  -0.2314948  -0.0044671   0.0023215   0.0062025
   28  -0.0630146   0.0381215  -0.0287486   0.0018212   0.0229213  -0.0192316
   29   0.0334837  -0.1839482   0.1204337   0.0009237  -0.0010541   0.0025673
   30  -0.0280720   0.1302818  -0.1646937   0.0033123   0.0029089  -0.0031161
   31  -0.0066802  -0.0267408  -0.0145505  -0.0828791  -0.0710474  -0.0374033
   32  -0.0008653   0.0021066  -0.0005793  -0.0668703  -0.2148870  -0.0938465
   33   0.0019282  -0.0046053  -0.0022395  -0.0405378  -0.1039925  -0.1080987
   34  -0.0194899   0.0078485   0.0297569  -0.1147866   0.0171085   0.1017356
   35   0.0001751   0.0000723  -0.0046403   0.0179469  -0.0603339  -0.0357404
   36  -0.0044375  -0.0008300   0.0054867   0.1028372  -0.0316075  -0.2213981
   37   0.0008785   0.0041465   0.0005394  -0.0001330   0.0069414   0.0030758
   38   0.0002287  -0.0001004  -0.0007738  -0.0042477  -0.0321746  -0.0170619
   39  -0.0000308   0.0015531   0.0000721   0.0023255   0.0317961   0.0094766
           13          14          15          16          17          18
    1   0.0005289  -0.0003127   0.0006236  -0.0349909   0.0022906  -0.0305589
    2   0.0003532   0.0004898   0.0001324  -0.0021211  -0.0497977  -0.0891430
    3  -0.0000546  -0.0000815   0.0001398  -0.0089133  -0.0486306  -0.2799356
    4   0.0006527  -0.0000613   0.0003513  -0.0065502   0.0025774   0.0003978
    5   0.0016027   0.0058144  -0.0001556  -0.0067324   0.0000208   0.0011555
    6   0.0006105  -0.0019006   0.0014839  -0.0196770  -0.0048420   0.0067296
    7  -0.0054140   0.0053931  -0.0088368  -0.0032238  -0.0018021   0.0010691
    8   0.0321559  -0.0188036   0.0173491   0.0020381  -0.0010678  -0.0000115
    9  -0.0291913   0.0141682  -0.0108299  -0.0012773  -0.0010490   0.0002079
   10  -0.0695331   0.0241268  -0.0196047  -0.0000783  -0.0001273   0.0003119
   11   0.0113783  -0.1689926   0.0404020  -0.0011558  -0.0003357   0.0003723
   12  -0.0204577   0.0853508  -0.1513389  -0.0003685   0.0000114   0.0004370
   13   0.0840200   0.0100304   0.0761226   0.0001362   0.0001473  -0.0002771
   14   0.0100304   0.5703616   0.0799053   0.0000756   0.0000624   0.0000380
   15   0.0761226   0.0799053   0.3360788   0.0000450  -0.0000203   0.0000069
   16   0.0001362   0.0000756   0.0000450   0.0417621   0.0048704   0.0235231
   17   0.0001473   0.0000624  -0.0000203   0.0048704   0.0639416   0.0834517
   18  -0.0002771   0.0000380   0.0000069   0.0235231   0.0834517   0.2797223
   19   0.0000037  -0.0003114   0.0000222   0.0052814  -0.0041017   0.0005410
   20  -0.0001127   0.0002804  -0.0002726   0.0020004  -0.0132831   0.0044696
   21  -0.0000398  -0.0001440   0.0000691   0.0068418  -0.0326863  -0.0039877
   22   0.0026226   0.0018330   0.0000595  -0.0020470  -0.0033158   0.0046667
   23   0.0003968  -0.0004283   0.0004536   0.0011839   0.0005870  -0.0004741
   24   0.0011180   0.0016353  -0.0011570  -0.0003805   0.0034428  -0.0033282
   25   0.0040821  -0.0006157  -0.0010534  -0.0003284  -0.0003273   0.0003380
   26  -0.0005379   0.0005026  -0.0010331  -0.0001433  -0.0002506   0.0003666
   27   0.0004234  -0.0010663   0.0011364  -0.0001050   0.0004780   0.0003611
   28  -0.0076683   0.0029502  -0.0028312   0.0003252  -0.0000118  -0.0000781
   29   0.0002748   0.0010906   0.0000050  -0.0000287   0.0000573  -0.0001525
   30  -0.0023280   0.0007197   0.0008725   0.0001973  -0.0001885  -0.0001492
   31   0.0043421   0.0092890   0.0027579  -0.0003161  -0.0000800   0.0001074
   32  -0.0045073  -0.0319420  -0.0053249   0.0000323  -0.0000022  -0.0000135
   33   0.0061832   0.0264733   0.0102709   0.0000273  -0.0000076   0.0000086
   34   0.0068326  -0.0006212  -0.0088641   0.0000059  -0.0000522  -0.0001748
   35  -0.0107855  -0.0046922   0.0331768   0.0000253   0.0000151   0.0000132
   36   0.0060434   0.0106984  -0.0224402   0.0000937   0.0000144  -0.0000128
   37  -0.0206056  -0.0517758  -0.0387918   0.0000240  -0.0000675   0.0001340
   38  -0.0403959  -0.3537430  -0.1646176  -0.0000447   0.0000528  -0.0000721
   39  -0.0381526  -0.2157965  -0.1642924  -0.0000067   0.0000261  -0.0000598
           19          20          21          22          23          24
    1  -0.0399782   0.0483649  -0.0142962   0.0093439   0.0228803  -0.0225430
    2   0.0255266  -0.2901035   0.0270729   0.0054371  -0.0086562   0.0056512
    3  -0.0004288  -0.0109249  -0.0302661  -0.0066035   0.0073730  -0.0104747
    4  -0.0134477  -0.0018387  -0.0002516  -0.0190775  -0.0711632   0.0759266
    5   0.0198804   0.0061214  -0.0063366  -0.0462332  -0.1590341   0.1634572
    6  -0.0030944  -0.0009302   0.0000691   0.0397424   0.1227833  -0.2276647
    7   0.0028926  -0.0007008  -0.0008600  -0.0078502  -0.0084038  -0.0037410
    8   0.0028363   0.0003435   0.0004444  -0.0114644  -0.0261377  -0.0145374
    9   0.0004760  -0.0013786   0.0021385   0.0020622   0.0199165   0.0152141
   10  -0.0001206   0.0001001  -0.0000347  -0.0013040  -0.0005708   0.0004203
   11   0.0006974   0.0002999  -0.0001979  -0.0037702   0.0007458  -0.0023138
   12   0.0001470   0.0004382  -0.0006459   0.0014157  -0.0004034   0.0005315
   13   0.0000037  -0.0001127  -0.0000398   0.0026226   0.0003968   0.0011180
   14  -0.0003114   0.0002804  -0.0001440   0.0018330  -0.0004283   0.0016353
   15   0.0000222  -0.0002726   0.0000691   0.0000595   0.0004536  -0.0011570
   16   0.0052814   0.0020004   0.0068418  -0.0020470   0.0011839  -0.0003805
   17  -0.0041017  -0.0132831  -0.0326863  -0.0033158   0.0005870   0.0034428
   18   0.0005410   0.0044696  -0.0039877   0.0046667  -0.0004741  -0.0033282
   19   0.0483137  -0.0436349   0.0032478  -0.0031189   0.0000544  -0.0012188
   20  -0.0436349   0.2982688   0.0078644  -0.0046202  -0.0023643  -0.0002469
   21   0.0032478   0.0078644   0.0341950   0.0058210   0.0040327  -0.0007873
   22  -0.0031189  -0.0046202   0.0058210   0.0234676   0.0563729  -0.0470931
   23   0.0000544  -0.0023643   0.0040327   0.0563729   0.1961718  -0.1512393
   24  -0.0012188  -0.0002469  -0.0007873  -0.0470931  -0.1512393   0.2283369
   25  -0.0003125  -0.0001374  -0.0007492   0.0013605   0.0009159  -0.0000605
   26  -0.0003203   0.0000804   0.0000782   0.0014145   0.0018167  -0.0022767
   27  -0.0002894   0.0005942  -0.0009112   0.0011198   0.0010371  -0.0001613
   28   0.0001074   0.0007088   0.0001165   0.0002385  -0.0025677  -0.0013544
   29  -0.0004729   0.0004884  -0.0001462   0.0029011  -0.0032912  -0.0039734
   30   0.0004677   0.0003709   0.0001219  -0.0001955  -0.0034994  -0.0009481
   31   0.0001562   0.0001340  -0.0001250   0.0000500   0.0002583  -0.0004356
   32  -0.0000317  -0.0000226   0.0000005   0.0004245  -0.0000214   0.0002321
   33   0.0000430   0.0000426  -0.0000200  -0.0001780   0.0001211  -0.0002557
   34   0.0000918  -0.0001451   0.0002033  -0.0000806   0.0001465   0.0000976
   35  -0.0000183  -0.0000061  -0.0000341   0.0000553  -0.0002381   0.0001850
   36  -0.0000449  -0.0000420   0.0000491  -0.0002389   0.0000096  -0.0001035
   37   0.0001310  -0.0001185   0.0001262  -0.0036047   0.0004965  -0.0007357
   38  -0.0001040  -0.0001031   0.0000520   0.0009654   0.0008500  -0.0000161
   39   0.0001316   0.0000153  -0.0000246  -0.0005783  -0.0001108   0.0007980
           25          26          27          28          29          30
    1   0.0022877   0.0030530   0.0008519   0.0009485   0.0009525   0.0001061
    2   0.0009049   0.0009820  -0.0000828  -0.0005376   0.0009570   0.0003168
    3  -0.0002948   0.0003442  -0.0000202   0.0003082  -0.0000647   0.0001582
    4   0.0046131   0.0066408   0.0012374  -0.0006700  -0.0053508  -0.0000799
    5  -0.0070974  -0.0185368  -0.0124548  -0.0151487  -0.0333721  -0.0181063
    6  -0.0146730  -0.0327651  -0.0116292   0.0070443   0.0149595   0.0127325
    7  -0.1216746   0.0148744   0.1110878  -0.0630146   0.0334837  -0.0280720
    8   0.0188631  -0.0548055  -0.0248010   0.0381215  -0.1839482   0.1302818
    9   0.1144308  -0.0174078  -0.2314948  -0.0287486   0.1204337  -0.1646937
   10  -0.0180028   0.0021653  -0.0044671   0.0018212   0.0009237   0.0033123
   11   0.0022098   0.0007284   0.0023215   0.0229213  -0.0010541   0.0029089
   12   0.0293626  -0.0012654   0.0062025  -0.0192316   0.0025673  -0.0031161
   13   0.0040821  -0.0005379   0.0004234  -0.0076683   0.0002748  -0.0023280
   14  -0.0006157   0.0005026  -0.0010663   0.0029502   0.0010906   0.0007197
   15  -0.0010534  -0.0010331   0.0011364  -0.0028312   0.0000050   0.0008725
   16  -0.0003284  -0.0001433  -0.0001050   0.0003252  -0.0000287   0.0001973
   17  -0.0003273  -0.0002506   0.0004780  -0.0000118   0.0000573  -0.0001885
   18   0.0003380   0.0003666   0.0003611  -0.0000781  -0.0001525  -0.0001492
   19  -0.0003125  -0.0003203  -0.0002894   0.0001074  -0.0004729   0.0004677
   20  -0.0001374   0.0000804   0.0005942   0.0007088   0.0004884   0.0003709
   21  -0.0007492   0.0000782  -0.0009112   0.0001165  -0.0001462   0.0001219
   22   0.0013605   0.0014145   0.0011198   0.0002385   0.0029011  -0.0001955
   23   0.0009159   0.0018167   0.0010371  -0.0025677  -0.0032912  -0.0034994
   24  -0.0000605  -0.0022767  -0.0001613  -0.0013544  -0.0039734  -0.0009481
   25   0.1288454  -0.0147246  -0.1193073   0.0041177  -0.0006622  -0.0059680
   26  -0.0147246   0.0630965   0.0353464  -0.0125441   0.0055023   0.0187939
   27  -0.1193073   0.0353464   0.2490889   0.0104541  -0.0022832  -0.0135816
   28   0.0041177  -0.0125441   0.0104541   0.0623124  -0.0323533   0.0334640
   29  -0.0006622   0.0055023  -0.0022832  -0.0323533   0.2132630  -0.1311337
   30  -0.0059680   0.0187939  -0.0135816   0.0334640  -0.1311337   0.1683262
   31   0.0009458  -0.0000383   0.0010144   0.0007883   0.0007211  -0.0003293
   32  -0.0002737   0.0001546   0.0000318  -0.0009658   0.0001910  -0.0000215
   33  -0.0002146   0.0003848   0.0004822  -0.0001351   0.0000123  -0.0001559
   34  -0.0056801   0.0002575  -0.0019989   0.0008789   0.0001105  -0.0004000
   35   0.0009288   0.0009006   0.0008102  -0.0001154  -0.0000479  -0.0002719
   36  -0.0019286  -0.0004117   0.0005915   0.0012299  -0.0001049   0.0006040
   37  -0.0002538  -0.0000971  -0.0000210  -0.0001851  -0.0004995  -0.0001747
   38   0.0000157  -0.0001714   0.0000690  -0.0004575   0.0001638  -0.0001707
   39   0.0001182  -0.0001541  -0.0000643  -0.0002380  -0.0001192  -0.0001708
           31          32          33          34          35          36
    1   0.0012399   0.0000840   0.0004466  -0.0005757  -0.0002749  -0.0002589
    2  -0.0004102   0.0001576  -0.0000316  -0.0001349   0.0000049  -0.0000036
    3  -0.0003756   0.0000245   0.0000554  -0.0002699   0.0000274   0.0000334
    4  -0.0094573   0.0015629  -0.0026036   0.0035707   0.0004198   0.0007638
    5  -0.0012640   0.0019206  -0.0001822  -0.0000446   0.0010624   0.0009705
    6  -0.0018158   0.0005653   0.0008653  -0.0001755   0.0011656   0.0007952
    7  -0.0066802  -0.0008653   0.0019282  -0.0194899   0.0001751  -0.0044375
    8  -0.0267408   0.0021066  -0.0046053   0.0078485   0.0000723  -0.0008300
    9  -0.0145505  -0.0005793  -0.0022395   0.0297569  -0.0046403   0.0054867
   10  -0.0828791  -0.0668703  -0.0405378  -0.1147866   0.0179469   0.1028372
   11  -0.0710474  -0.2148870  -0.1039925   0.0171085  -0.0603339  -0.0316075
   12  -0.0374033  -0.0938465  -0.1080987   0.1017356  -0.0357404  -0.2213981
   13   0.0043421  -0.0045073   0.0061832   0.0068326  -0.0107855   0.0060434
   14   0.0092890  -0.0319420   0.0264733  -0.0006212  -0.0046922   0.0106984
   15   0.0027579  -0.0053249   0.0102709  -0.0088641   0.0331768  -0.0224402
   16  -0.0003161   0.0000323   0.0000273   0.0000059   0.0000253   0.0000937
   17  -0.0000800  -0.0000022  -0.0000076  -0.0000522   0.0000151   0.0000144
   18   0.0001074  -0.0000135   0.0000086  -0.0001748   0.0000132  -0.0000128
   19   0.0001562  -0.0000317   0.0000430   0.0000918  -0.0000183  -0.0000449
   20   0.0001340  -0.0000226   0.0000426  -0.0001451  -0.0000061  -0.0000420
   21  -0.0001250   0.0000005  -0.0000200   0.0002033  -0.0000341   0.0000491
   22   0.0000500   0.0004245  -0.0001780  -0.0000806   0.0000553  -0.0002389
   23   0.0002583  -0.0000214   0.0001211   0.0001465  -0.0002381   0.0000096
   24  -0.0004356   0.0002321  -0.0002557   0.0000976   0.0001850  -0.0001035
   25   0.0009458  -0.0002737  -0.0002146  -0.0056801   0.0009288  -0.0019286
   26  -0.0000383   0.0001546   0.0003848   0.0002575   0.0009006  -0.0004117
   27   0.0010144   0.0000318   0.0004822  -0.0019989   0.0008102   0.0005915
   28   0.0007883  -0.0009658  -0.0001351   0.0008789  -0.0001154   0.0012299
   29   0.0007211   0.0001910   0.0000123   0.0001105  -0.0000479  -0.0001049
   30  -0.0003293  -0.0000215  -0.0001559  -0.0004000  -0.0002719   0.0006040
   31   0.0849686   0.0735190   0.0444213   0.0067299   0.0141777   0.0078640
   32   0.0735190   0.2470414   0.0974342  -0.0015722  -0.0019777  -0.0029117
   33   0.0444213   0.0974342   0.1116798  -0.0095023  -0.0206276  -0.0103624
   34   0.0067299  -0.0015722  -0.0095023   0.1220968  -0.0219175  -0.1109740
   35   0.0141777  -0.0019777  -0.0206276  -0.0219175   0.0627033   0.0249330
   36   0.0078640  -0.0029117  -0.0103624  -0.1109740   0.0249330   0.2462532
   37   0.0001119  -0.0005365   0.0001219   0.0004063  -0.0006175  -0.0009494
   38   0.0014815  -0.0027190   0.0049785  -0.0009838   0.0025373  -0.0007145
   39  -0.0011298   0.0044090  -0.0022299   0.0005661   0.0010029   0.0005041
           37          38          39
    1  -0.0009383   0.0007351  -0.0008056
    2  -0.0004472   0.0000944  -0.0002648
    3   0.0001941  -0.0000945  -0.0001055
    4   0.0025091  -0.0012986   0.0014407
    5  -0.0015308   0.0002676  -0.0008369
    6   0.0001217  -0.0000579  -0.0003692
    7   0.0008785   0.0002287  -0.0000308
    8   0.0041465  -0.0001004   0.0015531
    9   0.0005394  -0.0007738   0.0000721
   10  -0.0001330  -0.0042477   0.0023255
   11   0.0069414  -0.0321746   0.0317961
   12   0.0030758  -0.0170619   0.0094766
   13  -0.0206056  -0.0403959  -0.0381526
   14  -0.0517758  -0.3537430  -0.2157965
   15  -0.0387918  -0.1646176  -0.1642924
   16   0.0000240  -0.0000447  -0.0000067
   17  -0.0000675   0.0000528   0.0000261
   18   0.0001340  -0.0000721  -0.0000598
   19   0.0001310  -0.0001040   0.0001316
   20  -0.0001185  -0.0001031   0.0000153
   21   0.0001262   0.0000520  -0.0000246
   22  -0.0036047   0.0009654  -0.0005783
   23   0.0004965   0.0008500  -0.0001108
   24  -0.0007357  -0.0000161   0.0007980
   25  -0.0002538   0.0000157   0.0001182
   26  -0.0000971  -0.0001714  -0.0001541
   27  -0.0000210   0.0000690  -0.0000643
   28  -0.0001851  -0.0004575  -0.0002380
   29  -0.0004995   0.0001638  -0.0001192
   30  -0.0001747  -0.0001707  -0.0001708
   31   0.0001119   0.0014815  -0.0011298
   32  -0.0005365  -0.0027190   0.0044090
   33   0.0001219   0.0049785  -0.0022299
   34   0.0004063  -0.0009838   0.0005661
   35  -0.0006175   0.0025373   0.0010029
   36  -0.0009494  -0.0007145   0.0005041
   37   0.0216597   0.0441059   0.0363596
   38   0.0441059   0.3850455   0.1784796
   39   0.0363596   0.1784796   0.1564656
 Gradient time:  CPU 4267.58 s  wall 1218.07 s
 **********************************************************************
 **                                                                  **
 **                       VIBRATIONAL ANALYSIS                       **
 **                       --------------------                       **
 **                                                                  **
 **        VIBRATIONAL FREQUENCIES (CM**-1) AND NORMAL MODES         **
 **     FORCE CONSTANTS (mDYN/ANGSTROM) AND REDUCED MASSES (AMU)     **
 **                  INFRARED INTENSITIES (KM/MOL)                   **
 **                                                                  **
 **********************************************************************
 

 Mode:                 1                      2                      3
 Frequency:       -57.94                 178.94                 222.07
 Force Cnst:      0.0064                 0.0738                 0.1121
 Red. Mass:       3.2513                 3.9108                 3.8575
 IR Active:          YES                    YES                    YES
 IR Intens:      148.022                 24.923                 13.705
 Raman Active:       YES                    YES                    YES
               X      Y      Z        X      Y      Z        X      Y      Z
 C         -0.071  0.127 -0.227    0.147 -0.121 -0.004    0.267  0.239  0.149
 O         -0.081 -0.121  0.216    0.034  0.038  0.220    0.053 -0.171 -0.056
 C         -0.041 -0.051  0.088    0.035  0.182 -0.054   -0.102 -0.106 -0.053
 C         -0.011  0.029 -0.030    0.009  0.048 -0.006   -0.121  0.073  0.041
 O          0.119  0.033 -0.059   -0.215 -0.132 -0.153   -0.084  0.001 -0.059
 H          0.176  0.144 -0.270    0.291 -0.219  0.009    0.014  0.139  0.208
 H          0.135  0.176 -0.392    0.040 -0.141 -0.126    0.461  0.270  0.068
 H          0.487 -0.193  0.261    0.223  0.112  0.346    0.147 -0.188 -0.024
 H          0.004  0.008  0.103    0.018  0.410 -0.105   -0.190 -0.181 -0.095
 H         -0.129 -0.138  0.014    0.090  0.027 -0.251   -0.179 -0.148 -0.081
 H         -0.031  0.046 -0.047    0.093 -0.064  0.143   -0.285  0.065  0.178
 H         -0.071  0.069 -0.068    0.043  0.101  0.008   -0.014  0.249  0.080
 H          0.285  0.028 -0.091   -0.202 -0.044 -0.308    0.010  0.038 -0.145
 TransDip   0.382 -0.021  0.073    0.139  0.078 -0.003    0.114 -0.027 -0.021

 Mode:                 4                      5                      6
 Frequency:       255.63                 326.17                 339.99
 Force Cnst:      0.0925                 0.0701                 0.0902
 Red. Mass:       2.4032                 1.1179                 1.3247
 IR Active:          YES                    YES                    YES
 IR Intens:        8.109                233.936                328.629
 Raman Active:       YES                    YES                    YES
               X      Y      Z        X      Y      Z        X      Y      Z
 C          0.251 -0.012 -0.074    0.011 -0.048 -0.002    0.044  0.005  0.056
 O         -0.081  0.051  0.041   -0.035  0.008 -0.007   -0.052  0.073 -0.061
 C         -0.059 -0.001  0.105    0.016  0.008 -0.034   -0.016  0.019  0.031
 C         -0.035 -0.090 -0.127    0.009 -0.012 -0.017   -0.014 -0.049 -0.029
 O         -0.004  0.045  0.021   -0.039  0.012  0.033   -0.021 -0.007  0.039
 H          0.188  0.104 -0.087   -0.035  0.554 -0.182    0.096 -0.373  0.151
 H          0.077 -0.053  0.201    0.049 -0.023  0.565    0.014  0.001 -0.439
 H         -0.483  0.079 -0.006    0.499 -0.180 -0.021    0.674 -0.148 -0.041
 H          0.072 -0.116  0.207    0.019  0.051 -0.040   -0.015 -0.054  0.043
 H         -0.154  0.080  0.225    0.022 -0.030 -0.076   -0.026  0.052  0.080
 H          0.152 -0.046 -0.353    0.019 -0.003 -0.044    0.062 -0.039 -0.109
 H         -0.221 -0.315 -0.206    0.023 -0.061 -0.001   -0.072 -0.144 -0.048
 H         -0.147 -0.023  0.174    0.166 -0.007  0.016    0.266 -0.042  0.029
 TransDip  -0.083  0.021  0.030    0.463  0.109  0.116    0.566 -0.127 -0.027

 Mode:                 7                      8                      9
 Frequency:       387.41                 567.56                 612.45
 Force Cnst:      0.2732                 0.5118                 0.2383
 Red. Mass:       3.0892                 2.6964                 1.0782
 IR Active:          YES                    YES                    YES
 IR Intens:       14.368                 54.258                 22.368
 Raman Active:       YES                    YES                    YES
               X      Y      Z        X      Y      Z        X      Y      Z
 C         -0.137  0.023  0.009   -0.041  0.010  0.007   -0.008  0.009 -0.002
 O          0.234 -0.048  0.003    0.195  0.014  0.019    0.026 -0.000  0.015
 C          0.031 -0.032  0.148   -0.145  0.121 -0.011    0.005 -0.008 -0.008
 C          0.037  0.029 -0.124   -0.185 -0.094  0.014   -0.002 -0.005 -0.013
 O         -0.183  0.055 -0.034    0.112 -0.047  0.015   -0.057 -0.002  0.014
 H         -0.064  0.091 -0.028   -0.045  0.116 -0.027   -0.028 -0.019  0.014
 H          0.053  0.065 -0.029    0.084  0.037  0.069   -0.036 -0.001  0.031
 H          0.235 -0.078 -0.075    0.083  0.076  0.016   -0.314  0.115  0.022
 H          0.199 -0.361  0.306   -0.415  0.319 -0.211    0.046 -0.017  0.020
 H         -0.290  0.065  0.355    0.124  0.013 -0.219   -0.011  0.023  0.028
 H          0.246  0.013 -0.255    0.118 -0.096 -0.219    0.005  0.015 -0.050
 H         -0.110 -0.181 -0.181   -0.493 -0.295 -0.141    0.007 -0.041  0.000
 H         -0.273  0.048  0.002    0.082 -0.082  0.083    0.900  0.009 -0.245
 TransDip  -0.117 -0.034  0.004   -0.234 -0.010 -0.026    0.096 -0.040 -0.110

 Mode:                10                     11                     12
 Frequency:       857.24                 899.19                 972.62
 Force Cnst:      1.1056                 0.8830                 0.6894
 Red. Mass:       2.5536                 1.8536                 1.2370
 IR Active:          YES                    YES                    YES
 IR Intens:       43.854                 12.208                 16.236
 Raman Active:       YES                    YES                    YES
               X      Y      Z        X      Y      Z        X      Y      Z
 C          0.014 -0.012 -0.015    0.009  0.002  0.002   -0.007  0.042  0.032
 O         -0.077 -0.151 -0.085   -0.036 -0.019 -0.036    0.012  0.015  0.004
 C         -0.075  0.185  0.056    0.122 -0.072  0.139   -0.060 -0.061 -0.033
 C          0.166  0.107  0.069   -0.028 -0.015  0.095    0.055  0.063  0.014
 O          0.005 -0.049  0.027   -0.048  0.086 -0.086    0.003 -0.032  0.019
 H         -0.343 -0.042  0.030    0.021 -0.021  0.008    0.667  0.066 -0.034
 H          0.212  0.018 -0.005   -0.080 -0.016 -0.006   -0.576 -0.050  0.045
 H         -0.089 -0.076 -0.008   -0.054 -0.144 -0.146   -0.025 -0.090 -0.101
 H         -0.211  0.065 -0.012   -0.217  0.301 -0.140   -0.138 -0.034 -0.085
 H         -0.244  0.056 -0.047    0.644 -0.213 -0.167   -0.143 -0.138 -0.107
 H          0.671  0.014 -0.138    0.145  0.062 -0.176    0.224  0.056 -0.109
 H         -0.130 -0.238 -0.057   -0.325 -0.143 -0.072   -0.053 -0.120 -0.026
 H          0.024  0.064 -0.174   -0.007  0.131 -0.165   -0.036  0.041 -0.098
 TransDip   0.152  0.147  0.018    0.095 -0.040  0.043   -0.098 -0.003 -0.084

 Mode:                13                     14                     15
 Frequency:      1044.48                1088.34                1101.57
 Force Cnst:      1.5009                 1.6943                 1.4035
 Red. Mass:       2.3351                 2.4278                 1.9631
 IR Active:          YES                    YES                    YES
 IR Intens:       76.017                 73.919                 14.844
 Raman Active:       YES                    YES                    YES
               X      Y      Z        X      Y      Z        X      Y      Z
 C         -0.005  0.034  0.023    0.001 -0.008 -0.002   -0.019 -0.017  0.012
 O         -0.020 -0.165 -0.071   -0.033 -0.023 -0.009   -0.015  0.013  0.017
 C          0.101  0.210  0.043    0.163 -0.007 -0.053    0.008 -0.010 -0.131
 C         -0.089 -0.088 -0.012   -0.166  0.183 -0.017   -0.009 -0.094  0.191
 O          0.007  0.035 -0.022    0.039 -0.127  0.093    0.003  0.089 -0.092
 H          0.505  0.070 -0.029    0.008  0.007 -0.008    0.176  0.080 -0.039
 H         -0.515 -0.045  0.052    0.048  0.001 -0.002    0.188  0.023 -0.029
 H         -0.004 -0.006  0.076    0.040  0.129  0.155    0.072  0.245  0.245
 H          0.199 -0.021  0.136    0.305 -0.197  0.059    0.043 -0.468 -0.025
 H          0.034  0.288  0.168    0.116  0.159  0.163   -0.156  0.274  0.257
 H         -0.189 -0.152  0.201   -0.083  0.354 -0.425    0.218 -0.035 -0.093
 H          0.022  0.165  0.025   -0.370 -0.191 -0.076   -0.072 -0.430  0.190
 H          0.089 -0.102  0.198   -0.140  0.130 -0.328   -0.048  0.142 -0.161
 TransDip   0.187  0.132  0.161   -0.046  0.241 -0.124    0.050 -0.072  0.087

 Mode:                16                     17                     18
 Frequency:      1130.98                1223.18                1273.48
 Force Cnst:      0.8845                 0.9494                 1.1367
 Red. Mass:       1.1737                 1.0771                 1.1896
 IR Active:          YES                    YES                    YES
 IR Intens:        2.295                  9.711                 31.410
 Raman Active:       YES                    YES                    YES
               X      Y      Z        X      Y      Z        X      Y      Z
 C         -0.069 -0.053  0.059   -0.001  0.005  0.002   -0.004 -0.002 -0.002
 O         -0.021  0.004 -0.031    0.013  0.003 -0.001   -0.009  0.024  0.011
 C         -0.010  0.009  0.025   -0.010  0.039  0.011    0.070 -0.015 -0.044
 C          0.010  0.010 -0.028   -0.030 -0.040  0.035   -0.063  0.040  0.045
 O         -0.002 -0.010  0.012    0.017  0.008 -0.009   -0.000  0.008 -0.022
 H          0.601  0.221 -0.103   -0.013 -0.038  0.014   -0.017 -0.045  0.011
 H          0.679  0.085 -0.192    0.015  0.004 -0.018    0.079  0.007 -0.006
 H         -0.169  0.013 -0.072   -0.063 -0.281 -0.276   -0.079 -0.171 -0.185
 H         -0.003  0.113  0.010    0.388  0.301  0.215    0.316  0.016  0.097
 H          0.064 -0.005 -0.018   -0.278 -0.187 -0.181   -0.335 -0.229 -0.182
 H         -0.031  0.003  0.018   -0.200  0.127 -0.150    0.386 -0.252  0.248
 H          0.024  0.074 -0.027    0.247 -0.314  0.244   -0.357  0.093 -0.134
 H          0.022 -0.011  0.006   -0.069  0.166 -0.265    0.111 -0.208  0.338
 TransDip   0.025  0.024 -0.034   -0.079 -0.024 -0.056   -0.020 -0.170  0.054

 Mode:                19                     20                     21
 Frequency:      1401.05                1406.53                1411.48
 Force Cnst:      1.4726                 1.3319                 1.3380
 Red. Mass:       1.2733                 1.1427                 1.1399
 IR Active:          YES                    YES                    YES
 IR Intens:        2.652                 25.147                 14.048
 Raman Active:       YES                    YES                    YES
               X      Y      Z        X      Y      Z        X      Y      Z
 C         -0.009  0.021 -0.026    0.029 -0.030  0.035   -0.031  0.030 -0.047
 O          0.006 -0.021 -0.032    0.002 -0.001 -0.060   -0.003  0.007 -0.039
 C         -0.111 -0.062 -0.009    0.001 -0.037  0.052    0.020  0.003  0.031
 C         -0.024  0.062 -0.004   -0.007  0.009  0.006    0.038 -0.048  0.016
 O          0.003 -0.000 -0.016    0.001  0.000 -0.010   -0.003  0.006  0.016
 H          0.106 -0.227  0.059   -0.118  0.395 -0.107    0.198 -0.431  0.109
 H          0.041  0.013  0.258   -0.176 -0.030 -0.344    0.162  0.035  0.481
 H          0.109  0.158  0.173    0.075  0.508  0.414    0.118  0.294  0.259
 H          0.431  0.321  0.260    0.107  0.212  0.081    0.002  0.041  0.020
 H          0.438  0.166  0.119   -0.221 -0.273 -0.154   -0.270 -0.239 -0.172
 H          0.279 -0.114  0.106   -0.008  0.001  0.019   -0.188  0.052 -0.012
 H          0.151 -0.154  0.128    0.023 -0.075  0.042   -0.217  0.143 -0.161
 H          0.021 -0.076  0.120    0.007 -0.035  0.050   -0.041  0.098 -0.144
 TransDip  -0.036 -0.003  0.038    0.042  0.125  0.092    0.082  0.018  0.086

 Mode:                22                     23                     24
 Frequency:      1423.47                1440.31                1496.49
 Force Cnst:      1.4550                 1.5661                 1.4327
 Red. Mass:       1.2188                 1.2813                 1.0858
 IR Active:          YES                    YES                    YES
 IR Intens:       11.059                 37.683                 11.205
 Raman Active:       YES                    YES                    YES
               X      Y      Z        X      Y      Z        X      Y      Z
 C         -0.016  0.008 -0.019    0.004 -0.000  0.005    0.001  0.003 -0.002
 O         -0.007  0.007 -0.005    0.006 -0.008  0.001   -0.001 -0.009 -0.003
 C          0.063  0.008  0.050   -0.045  0.003 -0.031    0.050 -0.064 -0.016
 C         -0.053  0.067 -0.011    0.099  0.004  0.087    0.004  0.003 -0.007
 O         -0.000 -0.021 -0.053   -0.023 -0.023 -0.046    0.000  0.005  0.004
 H          0.075 -0.172  0.043   -0.014  0.042 -0.010   -0.002 -0.021  0.007
 H          0.094  0.016  0.190   -0.028 -0.004 -0.049   -0.003  0.000  0.018
 H         -0.006  0.059  0.040   -0.008 -0.052 -0.045    0.009 -0.040 -0.019
 H         -0.328 -0.082 -0.172    0.188  0.136  0.095   -0.159  0.626 -0.250
 H         -0.169 -0.110 -0.027    0.035  0.119  0.076   -0.373  0.292  0.498
 H          0.005  0.136 -0.168   -0.397  0.439 -0.345   -0.034 -0.060  0.126
 H          0.405 -0.323  0.327   -0.304  0.052 -0.155   -0.080 -0.080 -0.042
 H          0.111 -0.302  0.429    0.098 -0.307  0.436   -0.014  0.036 -0.047
 TransDip   0.062 -0.025  0.083    0.060 -0.140  0.125   -0.106  0.019 -0.003

 Mode:                25                     26                     27
 Frequency:      1507.72                2916.76                2975.63
 Force Cnst:      1.4620                 5.3002                 5.5700
 Red. Mass:       1.0916                 1.0574                 1.0677
 IR Active:          YES                    YES                    YES
 IR Intens:        2.266                 47.711                 34.609
 Raman Active:       YES                    YES                    YES
               X      Y      Z        X      Y      Z        X      Y      Z
 C          0.001  0.000 -0.001    0.017 -0.048  0.044   -0.000  0.001  0.000
 O          0.002  0.000 -0.003   -0.001 -0.001  0.001   -0.000  0.000  0.000
 C          0.003 -0.015 -0.006   -0.001  0.000  0.000   -0.003 -0.003  0.006
 C         -0.052 -0.057  0.036    0.000  0.000 -0.000    0.049  0.011 -0.053
 O         -0.003 -0.003  0.006   -0.000  0.000 -0.000   -0.000  0.001 -0.001
 H         -0.003 -0.002  0.001   -0.049 -0.221 -0.557    0.000 -0.001 -0.002
 H         -0.004  0.000  0.002   -0.129  0.784  0.041    0.000 -0.005 -0.000
 H          0.015  0.015  0.015   -0.012  0.012 -0.016   -0.001 -0.000  0.000
 H          0.026  0.128 -0.014    0.005 -0.002 -0.009    0.031 -0.011 -0.054
 H         -0.094  0.024  0.070    0.003  0.001  0.003   -0.001  0.034 -0.026
 H          0.402  0.086 -0.553    0.000 -0.000  0.000   -0.098 -0.272 -0.153
 H          0.254  0.641  0.097   -0.001  0.000  0.002   -0.470  0.126  0.803
 H         -0.015  0.005 -0.009   -0.000  0.000  0.000   -0.003  0.004 -0.001
 TransDip   0.047  0.011  0.006    0.059 -0.155  0.146    0.107  0.074 -0.136

 Mode:                28                     29                     30
 Frequency:      2992.42                3020.82                3053.25
 Force Cnst:      5.8247                 5.6972                 6.0260
 Red. Mass:       1.1040                 1.0596                 1.0971
 IR Active:          YES                    YES                    YES
 IR Intens:       54.615                 14.481                 26.547
 Raman Active:       YES                    YES                    YES
               X      Y      Z        X      Y      Z        X      Y      Z
 C          0.002 -0.069 -0.063    0.000 -0.006 -0.005    0.000 -0.000 -0.000
 O          0.000  0.001  0.001   -0.000  0.001 -0.002    0.000  0.001 -0.000
 C         -0.004  0.003  0.003    0.043 -0.044 -0.023    0.008 -0.013  0.001
 C          0.000 -0.001 -0.000    0.002  0.014  0.009   -0.013 -0.067 -0.056
 O         -0.000  0.000 -0.000   -0.000 -0.000 -0.000    0.001  0.001  0.001
 H          0.067  0.228  0.760    0.004  0.019  0.058    0.000  0.001  0.003
 H         -0.094  0.583 -0.019   -0.011  0.058 -0.004   -0.001  0.004 -0.001
 H         -0.000 -0.006 -0.005   -0.005 -0.029  0.030   -0.000 -0.009  0.011
 H          0.043 -0.010 -0.068   -0.398  0.102  0.662   -0.056  0.014  0.090
 H          0.007 -0.028  0.025   -0.092  0.438 -0.381   -0.032  0.130 -0.111
 H          0.003  0.007  0.004   -0.056 -0.155 -0.081    0.313  0.768  0.413
 H         -0.003  0.000  0.003    0.017 -0.002 -0.028   -0.160  0.035  0.254
 H          0.000  0.000  0.000    0.000  0.002  0.002   -0.007 -0.009 -0.014
 TransDip  -0.015 -0.177 -0.156   -0.007 -0.115 -0.041   -0.021 -0.148 -0.070

 Mode:                31                     32                     33
 Frequency:      3085.16                3245.81                3690.22
 Force Cnst:      6.2265                 6.6039                 8.5535
 Red. Mass:       1.1103                 1.0639                 1.0661
 IR Active:          YES                    YES                    YES
 IR Intens:       17.137                101.385                 31.303
 Raman Active:       YES                    YES                    YES
               X      Y      Z        X      Y      Z        X      Y      Z
 C         -0.000  0.002  0.001   -0.007  0.001 -0.001    0.000 -0.000  0.000
 O          0.000  0.002 -0.003    0.018  0.039 -0.042   -0.000 -0.000  0.000
 C         -0.015 -0.042  0.085   -0.000  0.004 -0.002    0.000  0.000 -0.000
 C         -0.003  0.004  0.009    0.000 -0.000 -0.000   -0.001 -0.001 -0.002
 O         -0.000  0.000 -0.001   -0.000  0.000 -0.000   -0.007 -0.055 -0.029
 H         -0.002 -0.003 -0.011   -0.001  0.005 -0.018   -0.000 -0.000 -0.000
 H          0.000 -0.014  0.000    0.000  0.015 -0.012    0.000 -0.001  0.000
 H         -0.003 -0.022  0.038   -0.199 -0.652  0.726    0.000  0.003 -0.001
 H          0.316 -0.088 -0.502    0.002 -0.008 -0.009   -0.000 -0.000  0.000
 H         -0.140  0.589 -0.502    0.008 -0.049  0.034   -0.001  0.000 -0.001
 H         -0.015 -0.038 -0.021   -0.003 -0.001 -0.002    0.004  0.012  0.008
 H          0.051 -0.013 -0.077   -0.000  0.001  0.001   -0.002  0.004  0.001
 H         -0.001  0.000  0.001    0.000  0.001  0.004    0.120  0.865  0.484
 TransDip  -0.018 -0.060  0.117   -0.182 -0.241  0.114   -0.010  0.175  0.035

 STANDARD THERMODYNAMIC QUANTITIES AT   298.15 K  AND     1.00 ATM

   This Molecule has  1 Imaginary Frequencies
   Zero point vibrational energy:       67.974 kcal/mol

   Atom    1 Element C  Has Mass   12.00000
   Atom    2 Element O  Has Mass   15.99491
   Atom    3 Element C  Has Mass   12.00000
   Atom    4 Element C  Has Mass   12.00000
   Atom    5 Element O  Has Mass   15.99491
   Atom    6 Element H  Has Mass    1.00783
   Atom    7 Element H  Has Mass    1.00783
   Atom    8 Element H  Has Mass    1.00783
   Atom    9 Element H  Has Mass    1.00783
   Atom   10 Element H  Has Mass    1.00783
   Atom   11 Element H  Has Mass    1.00783
   Atom   12 Element H  Has Mass    1.00783
   Atom   13 Element H  Has Mass    1.00783
   Molecular Mass:    76.052460 amu
   Principal axes and moments of inertia in amu*Bohr^2:
                             1           2           3
    Eigenvalues --      148.23096   755.22521   824.44516
          X               0.91590     0.01000    -0.40129
          Y               0.11267     0.95310     0.28091
          Z               0.38528    -0.30250     0.87181
   Rotational Symmetry Number is   1
   The Molecule is an Asymmetric Top
   Translational Enthalpy:        0.889 kcal/mol
   Rotational Enthalpy:           0.889 kcal/mol
   Vibrational Enthalpy:         70.076 kcal/mol
   gas constant (RT):             0.592 kcal/mol
   Translational Entropy:        38.902  cal/mol.K
   Rotational Entropy:           26.026  cal/mol.K
   Vibrational Entropy:          11.258  cal/mol.K

   Total Enthalpy:               72.446 kcal/mol
   Total Entropy:                76.185  cal/mol.K
Archival summary:
1\1\nid00505\FREQ\ProcedureUnspecified\BasisUnspecified\238\cgrambow\TueFeb1223:51:202019TueFeb1223:51:202019\0\\#,FREQ,ProcedureUnspecified,BasisUnspecified,\\0,1\O\H,1,1.00454\C,1,1.45639,2,108.217\H,3,1.09738,1,106.118,2,148.68,0\H,3,1.09875,1,109.017,2,30.7359,0\C,3,1.52403,1,109.473,2,-91.0294,0\H,6,1.09903,3,108.356,1,-179.029,0\H,6,1.10403,3,109.634,1,-61.5893,0\O,6,1.42353,3,112.349,1,63.7585,0\H,9,0.974545,6,107.06,3,-74.0708,0\C,2,1.74431,1,80.8553,3,-106.612,0\H,11,1.10984,2,110.603,1,-64.0283,0\H,11,1.11174,2,117.419,1,55.0799,0\\\@

 Total job time:  1249.87s(wall), 4655.01s(cpu) 
 Tue Feb 12 23:51:20 2019

        *************************************************************
        *                                                           *
        *  Thank you very much for using Q-Chem.  Have a nice day.  *
        *                                                           *
        *************************************************************



Running Job 2 of 3 ts_optfreq0308.in
qchem ts_optfreq0308.in_18671.1 /tmp/qchem18671/ 1
/global/common/cori/software/qchem/5.1/exe/qcprog.exe ts_optfreq0308.in_18671.1 /tmp/qchem18671/
Check license passed

                  Welcome to Q-Chem
     A Quantum Leap Into The Future Of Chemistry


 Q-Chem 5.1, Q-Chem, Inc., Pleasanton, CA (2018)

 Yihan Shao,  Zhengting Gan,  E. Epifanovsky,  A. T. B. Gilbert,  M. Wormit,  
 J. Kussmann,  A. W. Lange,  A. Behn,  Jia Deng,  Xintian Feng,  D. Ghosh,  
 M. Goldey,  P. R. Horn,  L. D. Jacobson,  I. Kaliman,  T. Kus,  A. Landau,  
 Jie Liu,  E. I. Proynov,  R. M. Richard,  R. P. Steele,  E. J. Sundstrom,  
 H. L. Woodcock III,  P. M. Zimmerman,  D. Zuev,  B. Albrecht,  E. Alguire,  
 S. A. Baeppler,  D. Barton,  Z. Benda,  Y. A. Bernard,  E. J. Berquist,  
 K. B. Bravaya,  H. Burton,  D. Casanova,  Chun-Min Chang,  Yunqing Chen,  
 A. Chien,  K. D. Closser,  M. P. Coons,  S. Coriani,  S. Dasgupta,  
 A. L. Dempwolff,  M. Diedenhofen,  Hainam Do,  R. G. Edgar,  Po-Tung Fang,  
 S. Faraji,  S. Fatehi,  Qingguo Feng,  K. D. Fenk,  J. Fosso-Tande,  
 Qinghui Ge,  A. Ghysels,  G. Gidofalvi,  J. Gomes,  J. Gonthier,  A. Gunina,  
 D. Hait,  M. W. D. Hanson-Heine,  P. H. P. Harbach,  A. W. Hauser,  
 J. E. Herr,  E. G. Hohenstein,  Z. C. Holden,  Kerwin Hui,  B. C. Huynh,  
 T.-C. Jagau,  Hyunjun Ji,  B. Kaduk,  K. Khistyaev,  Jaehoon Kim,  
 P. Klunzinger,  K. Koh,  D. Kosenkov,  L. Koulias,  T. Kowalczyk,  
 C. M. Krauter,  A. Kunitsa,  Ka Un Lao,  A. Laurent,  K. V. Lawler,  
 Joonho Lee,  D. Lefrancois,  S. Lehtola,  D. S. Levine,  Yi-Pei Li,  
 You-Sheng Lin,  Fenglai Liu,  E. Livshits,  A. Luenser,  P. Manohar,  
 E. Mansoor,  S. F. Manzer,  Shan-Ping Mao,  Yuezhi Mao,  N. Mardirossian,  
 A. V. Marenich,  T. Markovich,  L. A. Martinez-Martinez,  S. A. Maurer,  
 N. J. Mayhall,  S. C. McKenzie,  J.-M. Mewes,  A. F. Morrison,  
 J. W. Mullinax,  K. Nanda,  T. S. Nguyen-Beck,  R. Olivares-Amaya,  
 J. A. Parkhill,  T. M. Perrine,  F. Plasser,  P. Pokhilko,  S. Prager,  
 A. Prociuk,  E. Ramos,  D. R. Rehn,  F. Rob,  M. Schneider,  N. Sergueev,  
 S. M. Sharada,  S. Sharma,  D. W. Small,  T. Stauch,  T. Stein,  
 Yu-Chuan Su,  A. J. W. Thom,  A. Tkatchenko,  T. Tsuchimochi,  N. M. Tubman,  
 L. Vogt,  M. L. Vidal,  O. Vydrov,  M. A. Watson,  J. Wenzel,  
 M. de Wergifosse,  T. A. Wesolowski,  A. White,  J. Witte,  A. Yamada,  
 Jun Yang,  K. Yao,  S. Yeganeh,  S. R. Yost,  Zhi-Qiang You,  A. Zech,  
 Igor Ying Zhang,  Xing Zhang,  Yan Zhao,  Ying Zhu,  B. R. Brooks,  
 G. K. L. Chan,  C. J. Cramer,  M. S. Gordon,  W. J. Hehre,  A. Klamt,  
 M. W. Schmidt,  C. D. Sherrill,  D. G. Truhlar,  A. Aspuru-Guzik,  R. Baer,  
 A. T. Bell,  N. A. Besley,  Jeng-Da Chai,  R. A. DiStasio Jr.,  A. Dreuw,  
 B. D. Dunietz,  T. R. Furlani,  Chao-Ping Hsu,  Yousung Jung,  Jing Kong,  
 D. S. Lambrecht,  WanZhen Liang,  C. Ochsenfeld,  V. A. Rassolov,  
 L. V. Slipchenko,  J. E. Subotnik,  T. Van Voorhis,  J. M. Herbert,  
 A. I. Krylov,  P. M. W. Gill,  M. Head-Gordon

 Contributors to earlier versions of Q-Chem not listed above: 
 R. D. Adamson,  B. Austin,  J. Baker,  G. J. O. Beran,  K. Brandhorst,  
 S. T. Brown,  E. F. C. Byrd,  A. K. Chakraborty,  C.-L. Cheng,  
 Siu Hung Chien,  D. M. Chipman,  D. L. Crittenden,  H. Dachsel,  
 R. J. Doerksen,  A. D. Dutoi,  L. Fusti-Molnar,  W. A. Goddard III,  
 A. Golubeva-Zadorozhnaya,  S. R. Gwaltney,  G. Hawkins,  A. Heyden,  
 S. Hirata,  G. Kedziora,  F. J. Keil,  C. Kelley,  Jihan Kim,  R. A. King,  
 R. Z. Khaliullin,  P. P. Korambath,  W. Kurlancheek,  A. M. Lee,  M. S. Lee,  
 S. V. Levchenko,  Ching Yeh Lin,  D. Liotard,  R. C. Lochan,  I. Lotan,  
 P. E. Maslen,  N. Nair,  D. P. O'Neill,  D. Neuhauser,  E. Neuscamman,  
 C. M. Oana,  R. Olson,  B. Peters,  R. Peverati,  P. A. Pieniazek,  
 Y. M. Rhee,  J. Ritchie,  M. A. Rohrdanz,  E. Rosta,  N. J. Russ,  
 H. F. Schaefer III,  N. E. Schultz,  N. Shenvi,  A. C. Simmonett,  A. Sodt,  
 D. Stuck,  K. S. Thanthiriwatte,  V. Vanovschi,  Tao Wang,  A. Warshel,  
 C. F. Williams,  Q. Wu,  X. Xu,  W. Zhang

 Please cite Q-Chem as follows:
 Y. Shao et al., Mol. Phys. 113, 184-215 (2015)
 DOI: 10.1080/00268976.2014.952696

 Q-Chem 5.1.0 for Intel X86 EM64T Linux

 Parts of Q-Chem use Armadillo 8.300.2 (Tropical Shenanigans).
 http://arma.sourceforge.net/

 Q-Chem begins on Tue Feb 12 23:51:20 2019  

Host: cori07
0

     Scratch files written to /tmp/qchem18671//
 Jun2518 |scratch|qcdevops|jenkins|workspace|build_RNUM -1
Processing $rem in /global/common/cori/software/qchem/5.1/config/preferences.
 MEM_TOTAL  96000 
The previous job contains 0 fragments, simply inherited here

Checking the input file for inconsistencies... 	...done.

--------------------------------------------------------------
User input:
--------------------------------------------------------------

$molecule
read
$end

$rem
JOBTYPE                   TS
METHOD                    wB97X-D3
BASIS                     def2-TZVP
UNRESTRICTED              TRUE
SCF_GUESS                 READ
GEOM_OPT_HESSIAN          READ
SCF_ALGORITHM             DIIS
MAX_SCF_CYCLES            100
SCF_CONVERGENCE           8
SYM_IGNORE                TRUE
SYMMETRY                  FALSE
GEOM_OPT_MAX_CYCLES       100
GEOM_OPT_TOL_GRADIENT     100
GEOM_OPT_TOL_DISPLACEMENT 400
GEOM_OPT_TOL_ENERGY       33
WAVEFUNCTION_ANALYSIS     FALSE
$end

--------------------------------------------------------------
 Adding empirical dispersion correction 
 ----------------------------------------------------------------
 Doing -D3(0) with
 s6  =   1.00000
 s8  =   1.00000
 rs6 =   1.28100
 rs8 =   1.09400
 -D3 energy without 3body term =     -0.0028422271 hartrees
 ----------------------------------------------------------------
             Standard Nuclear Orientation (Angstroms)
    I     Atom           X                Y                Z
 ----------------------------------------------------------------
    1      C       2.3047324814     0.6777757166     0.4056647442
    2      O       0.4398353279     0.5690193014     0.4769048157
    3      C      -0.0582036219    -0.6302377152    -0.1824900430
    4      C      -1.5464925602    -0.4713056988    -0.4695483908
    5      O      -1.8115411260     0.5881802051    -1.3826028376
    6      H       2.4168467692     0.9905908865     1.4645888419
    7      H       2.5038560765    -0.4158073542     0.4254763771
    8      H       0.7676337216     1.2029518936    -0.2300425072
    9      H       0.5091972863    -0.7909123855    -1.1095783951
   10      H       0.1287601573    -1.4594522055     0.5115535021
   11      H      -1.9064438099    -1.3916787906    -0.9503923149
   12      H      -2.0964062492    -0.3486988611     0.4798966981
   13      H      -1.6853684530     1.4231330076    -0.8961124906
 ----------------------------------------------------------------
 Nuclear Repulsion Energy =   185.3054713685 hartrees
 There are       21 alpha and       21 beta electrons
 Requested basis set is def2-TZVP
 There are 87 shells and 203 basis functions

 Total QAlloc Memory Limit  96000 MB
 Mega-Array Size       188 MB
 MEM_STATIC part       192 MB
 A cutoff of  1.0D-11 yielded   3550 shell pairs
 There are     19466 function pairs (     24592 Cartesian)
 
 -------------------------------------------------------
 OpenMP Integral Computing Module                       
 Release: version 1.0, May 2013, Q-Chem Inc. Pittsburgh 
 -------------------------------------------------------
 Integral Job Info:
 Integral job number is                      11
 Integral operator is                         1
 short-range coefficients              19572800
 long-range coefficients              100000000
 Omega coefficients                         250
 if combine SR and LR in K                    1
 Integral screening is                        0
 Integral computing path is                   2
 max size of driver memory is            800000
 size of driver memory is                776718
 size of scratch memory is              4473992
 max col of scratch BK array              10000
 max len of scratch array in speh3          662
 max len of scratch index in speh4           32
 max int batch size is                      520
 min int batch size is                       52
 fixed nKL is                                52
 max L of basis functions is                  3
 order of int derivative is                   0
 number of shells is                         87
 number of basis is                         228
 number of cartesian basis is               228
 number of contracted shell pairs          3550
 number of primitive shell pairs           8043
 maxK2 (contraction) of shell pair           36
 max number of K2 of shell pair               1
 max number of CS2 of shell pair            569
 max number of PS2 of shell pair            984
 mem total for path MDJ                  561794
 -------------------------------------------------------
 Smallest overlap matrix eigenvalue = 4.34E-04

 Scale SEOQF with 1.000000e-01/1.000000e-01/1.000000e-01

 Standard Electronic Orientation quadrupole field applied
 Nucleus-field energy     =     0.0000000023 hartrees

 -----------------------------------------------------------------------
  General SCF calculation program by
  Eric Jon Sundstrom, Paul Horn, Yuezhi Mao, Dmitri Zuev, Alec White,
  David Stuck, Shaama M.S., Shane Yost, Joonho Lee, David Small,
  Daniel Levine, Susi Lehtola, Hugh Burton, Evgeny Epifanovsky
 -----------------------------------------------------------------------
 Exchange:     0.1957 Hartree-Fock + 1.0000 wB97X-D3 + LR-HF
 Correlation:  1.0000 wB97X-D3
 Using SG-2 standard quadrature grid
 Dispersion:   Grimme D3
 using 16 threads for integral computing
 -------------------------------------------------------
 OpenMP Integral computing Module                
 Release: version 1.0, May 2013, Q-Chem Inc. Pittsburgh 
 -------------------------------------------------------
 using 16 threads for integral computing
 -------------------------------------------------------
 OpenMP Integral computing Module                
 Release: version 1.0, May 2013, Q-Chem Inc. Pittsburgh 
 -------------------------------------------------------
 -------------------------------------------------------
 OpenMP BLAS3 based DFT computing Module                
 Release: version 1.0, May 2013, Q-Chem Inc. Pittsburgh 
 -------------------------------------------------------
 A unrestricted SCF calculation will be
 performed using DIIS
 SCF converges when DIIS error is below 1.0e-08
 ---------------------------------------
  Cycle       Energy         DIIS error
 ---------------------------------------
    1    -269.4429029129      3.61e-09  
    2    -269.4429029129      2.24e-09  Convergence criterion met
 ---------------------------------------
 SCF time:   CPU 55.27s  wall 3.00s 
<S^2> =          0.000000000
 SCF   energy in the final basis set =     -269.4429029129
 Total energy in the final basis set =     -269.4429029129
 No wavefunction analysis requested
 Calculating analytic gradient of the SCF energy
 Gradient of SCF Energy
            1           2           3           4           5           6
    1   0.0030837  -0.0088908  -0.0005753  -0.0013422  -0.0050330   0.0004628
    2   0.0059990  -0.0018150  -0.0081296   0.0016218  -0.0066062   0.0009453
    3  -0.0082337   0.0203749  -0.0033955   0.0029565  -0.0165022   0.0060859
            7           8           9          10          11          12
    1   0.0012000   0.0079570   0.0020989   0.0013940  -0.0013010  -0.0022505
    2  -0.0056518   0.0107675  -0.0008655  -0.0030440  -0.0036680  -0.0009913
    3   0.0007407  -0.0126463  -0.0034860   0.0027005  -0.0023835   0.0052177
           13
    1   0.0031963
    2   0.0114379
    3   0.0085710
 Max gradient component =       2.037E-02
 RMS gradient           =       6.716E-03
 Gradient time:  CPU 64.85 s  wall 4.83 s
 Geometry Optimization Parameters
   NAtoms,    NIC,     NZ,  NCons,   NDum,   NFix, NCnnct, MaxDiis
       13      79       0       0       0       0       0       0

 Cartesian Hessian read from HESS file


** GEOMETRY OPTIMIZATION IN DELOCALIZED INTERNAL COORDINATES **
   Searching for a Transition State

   Optimization Cycle:   1

                       Coordinates (Angstroms)
     ATOM                X               Y               Z
      1  C         2.3047324814    0.6777757166    0.4056647442
      2  O         0.4398353279    0.5690193014    0.4769048157
      3  C        -0.0582036219   -0.6302377152   -0.1824900430
      4  C        -1.5464925602   -0.4713056988   -0.4695483908
      5  O        -1.8115411260    0.5881802051   -1.3826028376
      6  H         2.4168467692    0.9905908865    1.4645888419
      7  H         2.5038560765   -0.4158073542    0.4254763771
      8  H         0.7676337216    1.2029518936   -0.2300425072
      9  H         0.5091972863   -0.7909123855   -1.1095783951
     10  H         0.1287601573   -1.4594522055    0.5115535021
     11  H        -1.9064438099   -1.3916787906   -0.9503923149
     12  H        -2.0964062492   -0.3486988611    0.4798966981
     13  H        -1.6853684530    1.4231330076   -0.8961124906
   Point Group: c1    Number of degrees of freedom:    33


   Energy is   -269.442902913


 Attempting to Generate Delocalized Internal Coordinates

 Transforming Cartesian Hessian to Internal Coordinates
 Hessian Transformation does not Include Derivative of B-matrix

 33 Hessian modes will be used to form the next step
  Hessian Eigenvalues:
    -0.000667    0.005672    0.006273    0.009784    0.013791    0.023480
     0.044193    0.050135    0.053516    0.064040    0.072458    0.080906
     0.089493    0.106879    0.122172    0.126485    0.142480    0.154896
     0.191945    0.199805    0.235220    0.248634    0.284202    0.307058
     0.311466    0.312477    0.314938    0.327225    0.329956    0.339691
     0.380123    0.385273    0.491220

 Transition State Search - Taking P-RFO Step
 Searching for Lamda that Maximizes Along the Lowest mode
 Value Taken    Lamda =   0.00481948
 Searching for Lamda that Minimizes Along All other modes
 Value Taken    Lamda =  -0.00348957
 Calculated Step too Large.  Step scaled by  0.312848
 Step Taken.  Stepsize is  0.300000

                             Maximum     Tolerance    Cnvgd?
         Gradient           0.015826      0.000100      NO
         Displacement       0.147458      0.000400      NO
         Energy change     *********      0.000000      NO


 New Cartesian Coordinates Obtained by Inverse Iteration

 Displacement from previous Coordinates is:  0.356900
 Adding empirical dispersion correction 
 ----------------------------------------------------------------
 Doing -D3(0) with
 s6  =   1.00000
 s8  =   1.00000
 rs6 =   1.28100
 rs8 =   1.09400
 -D3 energy without 3body term =     -0.0028011993 hartrees
 ----------------------------------------------------------------
             Standard Nuclear Orientation (Angstroms)
    I     Atom           X                Y                Z
 ----------------------------------------------------------------
    1      C       2.2563951872     0.7021420119     0.3819505564
    2      O       0.4121153893     0.5390425534     0.5266842412
    3      C      -0.0703584514    -0.6385422964    -0.1616795969
    4      C      -1.5493952493    -0.4716559991    -0.4724292241
    5      O      -1.7939240457     0.5867489368    -1.3847792856
    6      H       2.4146057744     1.0236996365     1.4259669563
    7      H       2.5025294316    -0.3754030238     0.3648691591
    8      H       0.8469970760     1.1567335826    -0.1574484271
    9      H       0.5061621579    -0.7782598994    -1.0849941762
   10      H       0.1008214219    -1.4892484313     0.5082571192
   11      H      -1.9083170093    -1.3882005225    -0.9562935735
   12      H      -2.1123938971    -0.3428504261     0.4657838452
   13      H      -1.6388317855     1.4193518772    -0.9125695940
 ----------------------------------------------------------------
 Nuclear Repulsion Energy =   186.1991329296 hartrees
 There are       21 alpha and       21 beta electrons
 Applying Cartesian multipole field
    Component          Value
    ---------          -----
     (2,0,0)        1.00000E-11
     (0,2,0)        2.00000E-11
     (0,0,2)       -3.00000E-11
 Nucleus-field energy     =     0.0000000022 hartrees
 Requested basis set is def2-TZVP
 There are 87 shells and 203 basis functions
 A cutoff of  1.0D-11 yielded   3556 shell pairs
 There are     19548 function pairs (     24711 Cartesian)
 Smallest overlap matrix eigenvalue = 4.28E-04

 -----------------------------------------------------------------------
  General SCF calculation program by
  Eric Jon Sundstrom, Paul Horn, Yuezhi Mao, Dmitri Zuev, Alec White,
  David Stuck, Shaama M.S., Shane Yost, Joonho Lee, David Small,
  Daniel Levine, Susi Lehtola, Hugh Burton, Evgeny Epifanovsky
 -----------------------------------------------------------------------
 Exchange:     0.1957 Hartree-Fock + 1.0000 wB97X-D3 + LR-HF
 Correlation:  1.0000 wB97X-D3
 Using SG-2 standard quadrature grid
 Dispersion:   Grimme D3
 using 16 threads for integral computing
 -------------------------------------------------------
 OpenMP Integral computing Module                
 Release: version 1.0, May 2013, Q-Chem Inc. Pittsburgh 
 -------------------------------------------------------
 using 16 threads for integral computing
 -------------------------------------------------------
 OpenMP Integral computing Module                
 Release: version 1.0, May 2013, Q-Chem Inc. Pittsburgh 
 -------------------------------------------------------
 -------------------------------------------------------
 OpenMP BLAS3 based DFT computing Module                
 Release: version 1.0, May 2013, Q-Chem Inc. Pittsburgh 
 -------------------------------------------------------
 A unrestricted SCF calculation will be
 performed using DIIS
 SCF converges when DIIS error is below 1.0e-08
 ---------------------------------------
  Cycle       Energy         DIIS error
 ---------------------------------------
    1    -269.4372024003      3.98e-04  
    2    -269.4419667096      1.35e-04  
    3    -269.4423993032      1.30e-04  
    4    -269.4427136587      2.76e-05  
    5    -269.4427588985      1.42e-05  
    6    -269.4427751187      4.64e-06  
    7    -269.4427779043      2.03e-06  
    8    -269.4427783639      8.43e-07  
    9    -269.4427784011      3.74e-07  
   10    -269.4427784083      1.41e-07  
   11    -269.4427784093      3.25e-08  
   12    -269.4427784093      6.78e-09  Convergence criterion met
 ---------------------------------------
 SCF time:   CPU 332.64s  wall 23.00s 
<S^2> =          0.000000000
 SCF   energy in the final basis set =     -269.4427784093
 Total energy in the final basis set =     -269.4427784093
 No wavefunction analysis requested
 Calculating analytic gradient of the SCF energy
 Gradient of SCF Energy
            1           2           3           4           5           6
    1   0.0033994  -0.0046145  -0.0005459  -0.0008897  -0.0036462   0.0001674
    2   0.0047996   0.0023919  -0.0056341   0.0012108  -0.0045647   0.0004134
    3  -0.0065714   0.0107852  -0.0027826   0.0019543  -0.0113588   0.0043778
            7           8           9          10          11          12
    1   0.0006851   0.0030594   0.0014443   0.0009840  -0.0008522  -0.0016011
    2  -0.0040808   0.0032570  -0.0005365  -0.0019962  -0.0025057  -0.0006147
    3   0.0008975  -0.0044583  -0.0023326   0.0018754  -0.0016811   0.0035035
           13
    1   0.0024100
    2   0.0078601
    3   0.0057911
 Max gradient component =       1.136E-02
 RMS gradient           =       4.082E-03
 Gradient time:  CPU 71.36 s  wall 5.03 s
 Geometry Optimization Parameters
   NAtoms,    NIC,     NZ,  NCons,   NDum,   NFix, NCnnct, MaxDiis
       13      79       0       0       0       0       0       0

 Cartesian Hessian Update
 Hessian Updated using Powell/Murtagh-Sargent Update
  Mixing factors:     0.813463 Powell
                      0.186537 Murtagh-Sargent


** GEOMETRY OPTIMIZATION IN DELOCALIZED INTERNAL COORDINATES **
   Searching for a Transition State

   Optimization Cycle:   2

                       Coordinates (Angstroms)
     ATOM                X               Y               Z
      1  C         2.2563951872    0.7021420119    0.3819505564
      2  O         0.4121153893    0.5390425534    0.5266842412
      3  C        -0.0703584514   -0.6385422964   -0.1616795969
      4  C        -1.5493952493   -0.4716559991   -0.4724292241
      5  O        -1.7939240457    0.5867489368   -1.3847792856
      6  H         2.4146057744    1.0236996365    1.4259669563
      7  H         2.5025294316   -0.3754030238    0.3648691591
      8  H         0.8469970760    1.1567335826   -0.1574484271
      9  H         0.5061621579   -0.7782598994   -1.0849941762
     10  H         0.1008214219   -1.4892484313    0.5082571192
     11  H        -1.9083170093   -1.3882005225   -0.9562935735
     12  H        -2.1123938971   -0.3428504261    0.4657838452
     13  H        -1.6388317855    1.4193518772   -0.9125695940
   Point Group: c1    Number of degrees of freedom:    33


   Energy is   -269.442778409

 Hessian Updated using Powell/Murtagh-Sargent Update
  Mixing factors:     0.833949 Powell
                      0.166051 Murtagh-Sargent

 33 Hessian modes will be used to form the next step
  Hessian Eigenvalues:
    -0.014180    0.006054    0.006225    0.009916    0.013891    0.022816
     0.044164    0.050135    0.053501    0.064033    0.072415    0.080844
     0.089482    0.106881    0.122166    0.126446    0.142482    0.154885
     0.191965    0.199778    0.235226    0.248642    0.284203    0.307046
     0.311433    0.312451    0.314940    0.327225    0.329949    0.339730
     0.379672    0.381675    0.491237

 Transition State Search - Taking P-RFO Step
 Searching for Lamda that Maximizes Along the Lowest mode
 Value Taken    Lamda =   0.00010158
 Searching for Lamda that Minimizes Along All other modes
 Value Taken    Lamda =  -0.00215767
 Step Taken.  Stepsize is  0.258899

                             Maximum     Tolerance    Cnvgd?
         Gradient           0.008484      0.000100      NO
         Displacement       0.182433      0.000400      NO
         Energy change      0.000125      0.000000      NO


 New Cartesian Coordinates Obtained by Inverse Iteration

 Displacement from previous Coordinates is:  0.296841
 Adding empirical dispersion correction 
 ----------------------------------------------------------------
 Doing -D3(0) with
[...]
 H          0.051  0.061 -0.139   -0.082 -0.195  0.520    0.031 -0.019 -0.423
 H          0.952 -0.156  0.093    0.351 -0.052 -0.189   -0.003  0.157  0.269
 H         -0.013  0.014 -0.015   -0.029  0.072 -0.189   -0.044  0.284 -0.113
 H         -0.009 -0.044 -0.036    0.167  0.111 -0.133    0.072 -0.009 -0.212
 H          0.006  0.001  0.003    0.017 -0.050  0.118   -0.019 -0.017  0.239
 H          0.006  0.002  0.002    0.140 -0.029  0.117    0.073  0.227  0.061
 H          0.092 -0.005 -0.010    0.020 -0.039 -0.022   -0.207 -0.015 -0.292
 TransDip   0.909  0.069  0.122    0.037  0.027 -0.036   -0.012  0.033 -0.053

 Mode:                 4                      5                      6
 Frequency:       221.02                 250.05                 295.66
 Force Cnst:      0.0731                 0.0565                 0.1091
 Red. Mass:       2.5393                 1.5335                 2.1185
 IR Active:          YES                    YES                    YES
 IR Intens:       13.776                 33.487                112.080
 Raman Active:       YES                    YES                    YES
               X      Y      Z        X      Y      Z        X      Y      Z
 C         -0.020  0.196  0.121    0.116  0.049 -0.013    0.222  0.074  0.033
 O          0.046 -0.132 -0.112    0.013 -0.092  0.068   -0.012  0.024 -0.006
 C         -0.038 -0.120 -0.067   -0.020 -0.025 -0.041   -0.066 -0.013  0.089
 C         -0.052  0.074  0.103   -0.030  0.039 -0.009   -0.060 -0.057 -0.102
 O          0.043  0.007 -0.005   -0.069  0.006 -0.036   -0.102  0.015  0.004
 H         -0.171 -0.223  0.270   -0.002  0.637 -0.176    0.169 -0.277  0.151
 H          0.206  0.268 -0.337    0.202  0.037  0.625    0.160  0.071 -0.283
 H         -0.017 -0.010 -0.045    0.019 -0.144  0.031    0.128 -0.048  0.039
 H         -0.158 -0.168 -0.129   -0.024  0.045 -0.055    0.020 -0.193  0.170
 H         -0.033 -0.120 -0.070   -0.061 -0.107 -0.131   -0.205  0.059  0.219
 H         -0.299  0.087  0.281   -0.080  0.034  0.041    0.098 -0.033 -0.279
 H          0.117  0.319  0.160    0.019  0.086  0.012   -0.209 -0.246 -0.152
 H          0.254  0.054 -0.130    0.047  0.029 -0.098    0.514 -0.009 -0.057
 TransDip  -0.012 -0.088 -0.079    0.131  0.109  0.073    0.323 -0.093 -0.046

 Mode:                 7                      8                      9
 Frequency:       327.92                 422.31                 572.06
 Force Cnst:      0.0762                 0.3955                 0.4997
 Red. Mass:       1.2024                 3.7640                 2.5914
 IR Active:          YES                    YES                    YES
 IR Intens:       70.602                 21.967                 61.496
 Raman Active:       YES                    YES                    YES
               X      Y      Z        X      Y      Z        X      Y      Z
 C         -0.034 -0.031 -0.034   -0.260 -0.009 -0.003   -0.073  0.008  0.017
 O         -0.065  0.024  0.031    0.234 -0.065  0.019    0.214 -0.001  0.009
 C          0.018  0.020 -0.051    0.090 -0.039  0.095   -0.127  0.114  0.001
 C          0.016 -0.009  0.032    0.100  0.074 -0.079   -0.167 -0.077  0.023
 O          0.016 -0.023  0.024   -0.207  0.040 -0.028    0.085 -0.040  0.008
 H         -0.009  0.012 -0.048   -0.140  0.104 -0.061   -0.062  0.131 -0.026
 H         -0.108 -0.054  0.049   -0.037  0.048 -0.002    0.104  0.050  0.056
 H         -0.148  0.055  0.047   -0.181  0.098 -0.106    0.031  0.088 -0.049
 H         -0.006  0.162 -0.088    0.299 -0.318  0.263   -0.411  0.294 -0.198
 H          0.127 -0.009 -0.123   -0.215  0.062  0.306    0.133  0.007 -0.213
 H         -0.040  0.009  0.051    0.200  0.056 -0.120    0.153 -0.085 -0.231
 H          0.072  0.028  0.062    0.074 -0.049 -0.072   -0.498 -0.298 -0.132
 H          0.904  0.016 -0.201    0.404  0.091 -0.226    0.165 -0.057  0.027
 TransDip   0.263  0.001 -0.059   -0.139 -0.020 -0.053   -0.247 -0.012 -0.043

 Mode:                10                     11                     12
 Frequency:       877.41                 905.37                1007.05
 Force Cnst:      0.9588                 0.8873                 0.8087
 Red. Mass:       2.1139                 1.8372                 1.3534
 IR Active:          YES                    YES                    YES
 IR Intens:       34.753                  6.506                 35.053
 Raman Active:       YES                    YES                    YES
               X      Y      Z        X      Y      Z        X      Y      Z
 C          0.020 -0.004 -0.015    0.006  0.009  0.007   -0.016  0.046  0.043
 O         -0.082 -0.114 -0.071   -0.025  0.013 -0.022    0.023  0.042  0.018
 C         -0.055  0.107  0.053    0.123 -0.121  0.130   -0.060 -0.084 -0.059
 C          0.156  0.122  0.085   -0.033 -0.006  0.071    0.036  0.065  0.000
 O          0.002 -0.039  0.019   -0.053  0.079 -0.079    0.011 -0.042  0.032
 H         -0.258 -0.055  0.038    0.090 -0.036  0.011    0.693  0.066 -0.050
 H          0.106  0.010  0.005   -0.139 -0.024 -0.019   -0.526 -0.058  0.002
 H         -0.055 -0.110 -0.027   -0.029 -0.157 -0.155   -0.006 -0.116 -0.133
 H         -0.241  0.063 -0.054   -0.199  0.282 -0.134   -0.090 -0.072 -0.076
 H         -0.159 -0.034 -0.085    0.668 -0.241 -0.175   -0.203 -0.147 -0.103
 H          0.679  0.054 -0.210    0.046  0.083 -0.170    0.138  0.079 -0.123
 H         -0.190 -0.289 -0.050   -0.290 -0.090 -0.071   -0.014 -0.123  0.000
 H         -0.052  0.116 -0.258   -0.049  0.127 -0.158   -0.052  0.052 -0.134
 TransDip   0.138  0.129 -0.010    0.046 -0.064  0.023   -0.151 -0.014 -0.114

 Mode:                13                     14                     15
 Frequency:      1076.62                1099.35                1130.28
 Force Cnst:      1.0265                 1.5374                 1.3730
 Red. Mass:       1.5031                 2.1591                 1.8241
 IR Active:          YES                    YES                    YES
 IR Intens:       38.326                 80.831                 30.170
 Raman Active:       YES                    YES                    YES
               X      Y      Z        X      Y      Z        X      Y      Z
 C         -0.001  0.026  0.009   -0.001 -0.038 -0.022   -0.039 -0.064  0.056
 O          0.016 -0.031 -0.019    0.030  0.153  0.061   -0.019  0.047  0.002
 C         -0.085  0.054  0.097   -0.106 -0.164  0.014   -0.072 -0.040 -0.050
 C          0.101 -0.064 -0.064    0.080  0.073 -0.081    0.079 -0.101  0.112
 O         -0.026  0.039 -0.028   -0.002 -0.054  0.055   -0.020  0.095 -0.089
 H          0.090 -0.040  0.020   -0.490 -0.073  0.041    0.407  0.289 -0.128
 H         -0.216 -0.022 -0.004    0.533  0.076 -0.077    0.597  0.105 -0.227
 H         -0.040 -0.261 -0.238   -0.008 -0.120 -0.187   -0.106  0.168  0.067
 H         -0.213  0.293 -0.020   -0.145  0.225 -0.068   -0.171 -0.162 -0.081
 H         -0.034 -0.168 -0.195   -0.028 -0.336 -0.239   -0.057  0.073  0.078
 H          0.045 -0.238  0.351   -0.055  0.129 -0.094    0.214 -0.146  0.100
 H          0.213  0.330 -0.063    0.138  0.040 -0.041    0.093 -0.157  0.118
 H          0.135 -0.210  0.415   -0.057  0.039 -0.116    0.032  0.026  0.044
 TransDip   0.082 -0.138  0.117   -0.188 -0.123 -0.180    0.030 -0.160  0.066

 Mode:                16                     17                     18
 Frequency:      1143.01                1209.48                1264.26
 Force Cnst:      1.2817                 1.0082                 1.2121
 Red. Mass:       1.6650                 1.1698                 1.2871
 IR Active:          YES                    YES                    YES
 IR Intens:       37.616                  3.676                 35.032
 Raman Active:       YES                    YES                    YES
               X      Y      Z        X      Y      Z        X      Y      Z
 C         -0.040 -0.053  0.069    0.005 -0.008 -0.005   -0.008 -0.005  0.001
 O         -0.041 -0.043 -0.058   -0.010  0.008 -0.001   -0.012  0.032  0.020
 C          0.045  0.061  0.066    0.013 -0.061 -0.011    0.077 -0.020 -0.060
 C         -0.043  0.075 -0.099    0.023  0.077 -0.044   -0.071  0.057  0.062
 O          0.011 -0.071  0.072   -0.014 -0.031  0.019    0.002 -0.003 -0.029
 H          0.530  0.288 -0.127    0.011  0.051 -0.022   -0.041 -0.058  0.017
 H          0.488  0.096 -0.273   -0.023 -0.015  0.053    0.139  0.025 -0.047
 H         -0.174 -0.068 -0.120    0.031  0.353  0.309   -0.059 -0.265 -0.245
 H          0.133  0.242  0.079   -0.343 -0.253 -0.192    0.376  0.013  0.107
 H          0.152  0.012 -0.031    0.229  0.106  0.128   -0.304 -0.192 -0.155
 H         -0.165  0.099 -0.046    0.209 -0.073  0.104    0.343 -0.166  0.163
 H         -0.043  0.184 -0.108   -0.294  0.304 -0.266   -0.365  0.021 -0.098
 H         -0.002 -0.021 -0.030    0.076 -0.201  0.321    0.109 -0.218  0.365
 TransDip   0.016  0.178 -0.082    0.038  0.035  0.032   -0.032 -0.181  0.045

 Mode:                19                     20                     21
 Frequency:      1366.07                1395.27                1395.88
 Force Cnst:      1.2754                 1.2960                 1.3857
 Red. Mass:       1.1600                 1.1299                 1.2071
 IR Active:          YES                    YES                    YES
 IR Intens:       22.045                  1.584                 10.055
 Raman Active:       YES                    YES                    YES
               X      Y      Z        X      Y      Z        X      Y      Z
 C          0.004 -0.004 -0.008   -0.045  0.031 -0.043   -0.028  0.024 -0.029
 O          0.005  0.002 -0.074   -0.004  0.003 -0.004    0.001 -0.015 -0.006
 C         -0.011 -0.040  0.064   -0.014  0.004 -0.015   -0.063 -0.023 -0.002
 C         -0.012  0.004  0.010    0.016 -0.051 -0.013   -0.019  0.084  0.008
 O          0.002  0.004 -0.010    0.003  0.022  0.040   -0.002 -0.024 -0.045
 H          0.070  0.017 -0.016    0.286 -0.463  0.101    0.197 -0.313  0.070
 H         -0.042 -0.014  0.107    0.280  0.041  0.483    0.172  0.025  0.330
 H          0.062  0.559  0.426    0.057 -0.021 -0.005    0.050 -0.032 -0.001
 H          0.235  0.314  0.156    0.085 -0.020  0.046    0.128  0.137  0.086
 H         -0.273 -0.373 -0.254    0.039  0.007 -0.027    0.338  0.190  0.140
 H          0.014 -0.023  0.040    0.073 -0.180  0.187    0.069  0.138 -0.154
 H          0.026 -0.086  0.052   -0.205  0.226 -0.191    0.296 -0.286  0.251
 H          0.008 -0.018  0.031   -0.073  0.215 -0.319    0.083 -0.246  0.371
 TransDip   0.043  0.084  0.117    0.000 -0.034 -0.022    0.009 -0.072  0.071

 Mode:                22                     23                     24
 Frequency:      1411.54                1436.70                1492.83
 Force Cnst:      1.4174                 1.7624                 1.4220
 Red. Mass:       1.2075                 1.4492                 1.0830
 IR Active:          YES                    YES                    YES
 IR Intens:       24.582                 13.451                 11.827
 Raman Active:       YES                    YES                    YES
               X      Y      Z        X      Y      Z        X      Y      Z
 C          0.026 -0.007  0.017   -0.013 -0.002 -0.008    0.002  0.003 -0.002
 O          0.009 -0.012 -0.002   -0.013  0.014  0.007    0.001 -0.010 -0.005
 C         -0.089 -0.049 -0.026    0.108  0.010  0.051    0.041 -0.067 -0.019
 C         -0.045  0.024 -0.040   -0.128  0.033 -0.083    0.007  0.004 -0.005
 O          0.011  0.018  0.026    0.019  0.006  0.012   -0.000  0.005  0.002
 H         -0.129  0.197 -0.040    0.043 -0.081  0.015   -0.005 -0.011  0.005
 H         -0.166 -0.024 -0.204    0.096  0.012  0.084   -0.011 -0.001  0.010
 H          0.028  0.005  0.031   -0.036  0.003 -0.014    0.017 -0.030 -0.003
 H          0.344  0.143  0.189   -0.426 -0.188 -0.233   -0.128  0.650 -0.224
 H          0.416  0.154  0.086   -0.190 -0.143 -0.047   -0.340  0.294  0.510
 H          0.424 -0.343  0.309    0.347 -0.297  0.189   -0.039 -0.052  0.131
 H          0.093 -0.006  0.037    0.468 -0.185  0.297   -0.094 -0.086 -0.045
 H         -0.048  0.151 -0.217   -0.008  0.070 -0.108   -0.010  0.024 -0.031
 TransDip  -0.099  0.072 -0.101   -0.027  0.088 -0.072   -0.109  0.013  0.006

 Mode:                25                     26                     27
 Frequency:      1503.43                2984.41                3042.46
 Force Cnst:      1.4531                 5.5845                 5.8178
 Red. Mass:       1.0912                 1.0642                 1.0667
 IR Active:          YES                    YES                    YES
 IR Intens:        2.128                192.808                 32.492
 Raman Active:       YES                    YES                    YES
               X      Y      Z        X      Y      Z        X      Y      Z
 C          0.001  0.000 -0.000   -0.020  0.004 -0.006    0.001 -0.002  0.002
 O          0.003  0.001 -0.002    0.025  0.035 -0.039    0.000  0.000 -0.000
 C          0.001 -0.017 -0.008    0.009 -0.009  0.000   -0.004 -0.003  0.009
 C         -0.049 -0.056  0.040   -0.000 -0.001  0.000    0.049  0.012 -0.052
 O         -0.003 -0.003  0.005   -0.000  0.000 -0.000   -0.000  0.001 -0.001
 H         -0.006  0.001 -0.000    0.003  0.013 -0.026   -0.003 -0.010 -0.025
 H         -0.007 -0.001 -0.001    0.004  0.028 -0.021   -0.008  0.034  0.004
 H          0.011  0.008  0.007   -0.172 -0.626  0.733   -0.002 -0.002  0.002
 H          0.037  0.141 -0.010   -0.065  0.007  0.104    0.046 -0.015 -0.080
 H         -0.088  0.031  0.079   -0.027  0.099 -0.096   -0.004  0.045 -0.034
 H          0.390  0.078 -0.565   -0.003 -0.003 -0.003   -0.110 -0.297 -0.156
 H          0.248  0.641  0.077    0.002  0.001 -0.002   -0.451  0.141  0.796
 H         -0.012 -0.000 -0.002   -0.000 -0.000  0.003   -0.003  0.003 -0.000
 TransDip   0.046  0.006  0.004   -0.315 -0.300  0.091    0.108  0.069 -0.130

 Mode:                28                     29                     30
 Frequency:      3047.58                3063.43                3115.60
 Force Cnst:      5.7748                 5.8565                 6.2816
 Red. Mass:       1.0553                 1.0592                 1.0983
 IR Active:          YES                    YES                    YES
 IR Intens:       29.333                  9.567                 22.758
 Raman Active:       YES                    YES                    YES
               X      Y      Z        X      Y      Z        X      Y      Z
 C          0.022 -0.045  0.042    0.005 -0.002  0.006    0.001 -0.001 -0.001
 O         -0.001 -0.000  0.000   -0.005 -0.008  0.007   -0.001 -0.001  0.001
 C         -0.003  0.003  0.002    0.042 -0.045 -0.023    0.000 -0.022  0.027
 C         -0.002 -0.001  0.002    0.002  0.009  0.004   -0.014 -0.065 -0.051
 O          0.000 -0.000  0.000   -0.000  0.000 -0.000    0.000  0.001  0.001
 H         -0.069 -0.223 -0.570   -0.010 -0.024 -0.062    0.001  0.005  0.016
 H         -0.163  0.759  0.081   -0.010  0.029  0.007   -0.003  0.006  0.001
 H         -0.016  0.005 -0.009    0.039  0.115 -0.134    0.009  0.021 -0.020
 H          0.030 -0.008 -0.052   -0.379  0.101  0.660    0.068 -0.020 -0.113
 H          0.007 -0.022  0.022   -0.097  0.450 -0.376   -0.067  0.268 -0.220
 H          0.007  0.020  0.010   -0.035 -0.104 -0.050    0.304  0.735  0.369
 H          0.021 -0.007 -0.037    0.002  0.001 -0.004   -0.144  0.036  0.238
 H         -0.000 -0.000  0.000   -0.000  0.001 -0.000   -0.007 -0.006 -0.012
 TransDip   0.056 -0.113  0.119    0.060 -0.061 -0.050   -0.010 -0.148 -0.035

 Mode:                31                     32                     33
 Frequency:      3122.53                3138.05                3892.58
 Force Cnst:      6.3729                 6.4329                 9.5203
 Red. Mass:       1.1094                 1.1087                 1.0664
 IR Active:          YES                    YES                    YES
 IR Intens:       15.941                 41.544                 38.303
 Raman Active:       YES                    YES                    YES
               X      Y      Z        X      Y      Z        X      Y      Z
 C          0.001 -0.007 -0.008    0.003 -0.070 -0.064    0.000 -0.000  0.000
 O         -0.001 -0.001  0.001   -0.000  0.001  0.001   -0.000 -0.000  0.000
 C         -0.014 -0.037  0.079    0.003  0.003 -0.010    0.000  0.000 -0.000
 C         -0.000  0.024  0.027    0.000 -0.001 -0.002   -0.001 -0.001 -0.002
 O         -0.000 -0.000 -0.001   -0.000 -0.000  0.000   -0.005 -0.056 -0.028
 H          0.009  0.028  0.093    0.088  0.230  0.738   -0.000  0.000 -0.000
 H         -0.013  0.052  0.003   -0.124  0.597  0.021    0.000 -0.000  0.000
 H          0.010  0.023 -0.018    0.001 -0.005 -0.008    0.001  0.002 -0.001
 H          0.301 -0.085 -0.498   -0.047  0.014  0.081    0.000 -0.000  0.000
 H         -0.130  0.532 -0.438    0.014 -0.047  0.039   -0.001  0.000 -0.001
 H         -0.106 -0.257 -0.130    0.006  0.012  0.006    0.003  0.009  0.006
 H          0.111 -0.031 -0.181   -0.010  0.003  0.015   -0.002  0.004  0.001
 H          0.002  0.002  0.004    0.000  0.000  0.000    0.079  0.881  0.463
 TransDip   0.003 -0.026  0.125   -0.013 -0.147 -0.145   -0.021  0.194  0.033

 STANDARD THERMODYNAMIC QUANTITIES AT   298.15 K  AND     1.00 ATM

   This Molecule has  1 Imaginary Frequencies
   Zero point vibrational energy:       67.796 kcal/mol

   Atom    1 Element C  Has Mass   12.00000
   Atom    2 Element O  Has Mass   15.99491
   Atom    3 Element C  Has Mass   12.00000
   Atom    4 Element C  Has Mass   12.00000
   Atom    5 Element O  Has Mass   15.99491
   Atom    6 Element H  Has Mass    1.00783
   Atom    7 Element H  Has Mass    1.00783
   Atom    8 Element H  Has Mass    1.00783
   Atom    9 Element H  Has Mass    1.00783
   Atom   10 Element H  Has Mass    1.00783
   Atom   11 Element H  Has Mass    1.00783
   Atom   12 Element H  Has Mass    1.00783
   Atom   13 Element H  Has Mass    1.00783
   Molecular Mass:    76.052460 amu
   Principal axes and moments of inertia in amu*Bohr^2:
                             1           2           3
    Eigenvalues --      141.55649   725.96927   793.65283
          X               0.91255     0.00534    -0.40894
          Y               0.11125     0.95897     0.26078
          Z               0.39355    -0.28347     0.87451
   Rotational Symmetry Number is   1
   The Molecule is an Asymmetric Top
   Translational Enthalpy:        0.889 kcal/mol
   Rotational Enthalpy:           0.889 kcal/mol
   Vibrational Enthalpy:         70.341 kcal/mol
   gas constant (RT):             0.592 kcal/mol
   Translational Entropy:        38.902  cal/mol.K
   Rotational Entropy:           25.903  cal/mol.K
   Vibrational Entropy:          15.342  cal/mol.K

   Total Enthalpy:               72.711 kcal/mol
   Total Entropy:                80.146  cal/mol.K
Archival summary:
1\1\nid00505\FREQ\ProcedureUnspecified\BasisUnspecified\238\cgrambow\WedFeb1300:17:082019WedFeb1300:17:082019\0\\#,FREQ,ProcedureUnspecified,BasisUnspecified,\\0,1\O\H,1,1.02105\C,1,1.43067,2,110.369\H,3,1.09277,1,107.142,2,139.204,0\H,3,1.09381,1,109.244,2,20.9358,0\C,3,1.5122,1,109.434,2,-100.476,0\H,6,1.09213,3,108.611,1,-177.626,0\H,6,1.09609,3,109.678,1,-60.1034,0\O,6,1.40949,3,112.284,1,64.3272,0\H,9,0.958821,6,108.676,3,-76.5016,0\C,2,1.53432,1,84.425,3,-104.826,0\H,11,1.094,2,114.72,1,-66.9132,0\H,11,1.09615,2,119.415,1,62.8913,0\\\@

 Total job time:  1341.96s(wall), 4719.53s(cpu) 
 Wed Feb 13 00:17:08 2019

        *************************************************************
        *                                                           *
        *  Thank you very much for using Q-Chem.  Have a nice day.  *
        *                                                           *
        *************************************************************


