
Running Job 1 of 2 prod_optfreq0080.in
qchem prod_optfreq0080.in_64313.0 /tmp/qchem64313/ 1
/global/common/cori/software/qchem/5.1/exe/qcprog.exe prod_optfreq0080.in_64313.0 /tmp/qchem64313/
Check license passed

                  Welcome to Q-Chem
     A Quantum Leap Into The Future Of Chemistry


 Q-Chem 5.1, Q-Chem, Inc., Pleasanton, CA (2018)

 Yihan Shao,  Zhengting Gan,  E. Epifanovsky,  A. T. B. Gilbert,  M. Wormit,  
 J. Kussmann,  A. W. Lange,  A. Behn,  Jia Deng,  Xintian Feng,  D. Ghosh,  
 M. Goldey,  P. R. Horn,  L. D. Jacobson,  I. Kaliman,  T. Kus,  A. Landau,  
 Jie Liu,  E. I. Proynov,  R. M. Richard,  R. P. Steele,  E. J. Sundstrom,  
 H. L. Woodcock III,  P. M. Zimmerman,  D. Zuev,  B. Albrecht,  E. Alguire,  
 S. A. Baeppler,  D. Barton,  Z. Benda,  Y. A. Bernard,  E. J. Berquist,  
 K. B. Bravaya,  H. Burton,  D. Casanova,  Chun-Min Chang,  Yunqing Chen,  
 A. Chien,  K. D. Closser,  M. P. Coons,  S. Coriani,  S. Dasgupta,  
 A. L. Dempwolff,  M. Diedenhofen,  Hainam Do,  R. G. Edgar,  Po-Tung Fang,  
 S. Faraji,  S. Fatehi,  Qingguo Feng,  K. D. Fenk,  J. Fosso-Tande,  
 Qinghui Ge,  A. Ghysels,  G. Gidofalvi,  J. Gomes,  J. Gonthier,  A. Gunina,  
 D. Hait,  M. W. D. Hanson-Heine,  P. H. P. Harbach,  A. W. Hauser,  
 J. E. Herr,  E. G. Hohenstein,  Z. C. Holden,  Kerwin Hui,  B. C. Huynh,  
 T.-C. Jagau,  Hyunjun Ji,  B. Kaduk,  K. Khistyaev,  Jaehoon Kim,  
 P. Klunzinger,  K. Koh,  D. Kosenkov,  L. Koulias,  T. Kowalczyk,  
 C. M. Krauter,  A. Kunitsa,  Ka Un Lao,  A. Laurent,  K. V. Lawler,  
 Joonho Lee,  D. Lefrancois,  S. Lehtola,  D. S. Levine,  Yi-Pei Li,  
 You-Sheng Lin,  Fenglai Liu,  E. Livshits,  A. Luenser,  P. Manohar,  
 E. Mansoor,  S. F. Manzer,  Shan-Ping Mao,  Yuezhi Mao,  N. Mardirossian,  
 A. V. Marenich,  T. Markovich,  L. A. Martinez-Martinez,  S. A. Maurer,  
 N. J. Mayhall,  S. C. McKenzie,  J.-M. Mewes,  A. F. Morrison,  
 J. W. Mullinax,  K. Nanda,  T. S. Nguyen-Beck,  R. Olivares-Amaya,  
 J. A. Parkhill,  T. M. Perrine,  F. Plasser,  P. Pokhilko,  S. Prager,  
 A. Prociuk,  E. Ramos,  D. R. Rehn,  F. Rob,  M. Schneider,  N. Sergueev,  
 S. M. Sharada,  S. Sharma,  D. W. Small,  T. Stauch,  T. Stein,  
 Yu-Chuan Su,  A. J. W. Thom,  A. Tkatchenko,  T. Tsuchimochi,  N. M. Tubman,  
 L. Vogt,  M. L. Vidal,  O. Vydrov,  M. A. Watson,  J. Wenzel,  
 M. de Wergifosse,  T. A. Wesolowski,  A. White,  J. Witte,  A. Yamada,  
 Jun Yang,  K. Yao,  S. Yeganeh,  S. R. Yost,  Zhi-Qiang You,  A. Zech,  
 Igor Ying Zhang,  Xing Zhang,  Yan Zhao,  Ying Zhu,  B. R. Brooks,  
 G. K. L. Chan,  C. J. Cramer,  M. S. Gordon,  W. J. Hehre,  A. Klamt,  
 M. W. Schmidt,  C. D. Sherrill,  D. G. Truhlar,  A. Aspuru-Guzik,  R. Baer,  
 A. T. Bell,  N. A. Besley,  Jeng-Da Chai,  R. A. DiStasio Jr.,  A. Dreuw,  
 B. D. Dunietz,  T. R. Furlani,  Chao-Ping Hsu,  Yousung Jung,  Jing Kong,  
 D. S. Lambrecht,  WanZhen Liang,  C. Ochsenfeld,  V. A. Rassolov,  
 L. V. Slipchenko,  J. E. Subotnik,  T. Van Voorhis,  J. M. Herbert,  
 A. I. Krylov,  P. M. W. Gill,  M. Head-Gordon

 Contributors to earlier versions of Q-Chem not listed above: 
 R. D. Adamson,  B. Austin,  J. Baker,  G. J. O. Beran,  K. Brandhorst,  
 S. T. Brown,  E. F. C. Byrd,  A. K. Chakraborty,  C.-L. Cheng,  
 Siu Hung Chien,  D. M. Chipman,  D. L. Crittenden,  H. Dachsel,  
 R. J. Doerksen,  A. D. Dutoi,  L. Fusti-Molnar,  W. A. Goddard III,  
 A. Golubeva-Zadorozhnaya,  S. R. Gwaltney,  G. Hawkins,  A. Heyden,  
 S. Hirata,  G. Kedziora,  F. J. Keil,  C. Kelley,  Jihan Kim,  R. A. King,  
 R. Z. Khaliullin,  P. P. Korambath,  W. Kurlancheek,  A. M. Lee,  M. S. Lee,  
 S. V. Levchenko,  Ching Yeh Lin,  D. Liotard,  R. C. Lochan,  I. Lotan,  
 P. E. Maslen,  N. Nair,  D. P. O'Neill,  D. Neuhauser,  E. Neuscamman,  
 C. M. Oana,  R. Olson,  B. Peters,  R. Peverati,  P. A. Pieniazek,  
 Y. M. Rhee,  J. Ritchie,  M. A. Rohrdanz,  E. Rosta,  N. J. Russ,  
 H. F. Schaefer III,  N. E. Schultz,  N. Shenvi,  A. C. Simmonett,  A. Sodt,  
 D. Stuck,  K. S. Thanthiriwatte,  V. Vanovschi,  Tao Wang,  A. Warshel,  
 C. F. Williams,  Q. Wu,  X. Xu,  W. Zhang

 Please cite Q-Chem as follows:
 Y. Shao et al., Mol. Phys. 113, 184-215 (2015)
 DOI: 10.1080/00268976.2014.952696

 Q-Chem 5.1.0 for Intel X86 EM64T Linux

 Parts of Q-Chem use Armadillo 8.300.2 (Tropical Shenanigans).
 http://arma.sourceforge.net/

 Q-Chem begins on Fri Feb 15 03:47:33 2019  

Host: cori05
0

     Scratch files written to /tmp/qchem64313//
 Jun2518 |scratch|qcdevops|jenkins|workspace|build_RNUM -1
Processing $rem in /global/common/cori/software/qchem/5.1/config/preferences.
 MEM_TOTAL  96000 

Checking the input file for inconsistencies... 	...done.

--------------------------------------------------------------
User input:
--------------------------------------------------------------
$molecule
0 1
C   0.8307922300  -0.7048456058  -0.8852956015
C   0.5109759458  -0.3056908715   0.5864450874
C   1.0450587946   1.0991201864   0.9066749562
C  -0.2781807860  -0.3554983178  -1.8149022222
C  -1.3939889782  -0.0192680251  -0.8828018624
C  -1.0335263038  -0.3775367119   0.5852897280
H   0.7270397925  -1.8140079154  -0.9914380894
H   1.8457712903  -0.4788722376  -1.2442170339
H   0.9448222643  -1.0213519794   1.2999178382
H   2.1401873353   1.1329025365   0.8149047777
H   0.7809061967   1.3978222557   1.9309804232
H   0.6325963613   1.8528928177   0.2191113847
H  -2.3941670518  -0.3168457959  -1.2298862181
H  -1.3739955509   1.0878406975  -1.0186226000
H  -1.3683248070  -1.4036466872   0.8007514366
H  -1.4971177329   0.2873416538   1.3268209955
$end

$rem
JOBTYPE                   OPT
METHOD                    wB97X-D3
BASIS                     def2-TZVP
UNRESTRICTED              TRUE
SCF_ALGORITHM             DIIS
MAX_SCF_CYCLES            100
SCF_CONVERGENCE           8
SYM_IGNORE                TRUE
SYMMETRY                  FALSE
GEOM_OPT_MAX_CYCLES       100
GEOM_OPT_TOL_GRADIENT     100
GEOM_OPT_TOL_DISPLACEMENT 400
GEOM_OPT_TOL_ENERGY       33
WAVEFUNCTION_ANALYSIS     FALSE
$end

--------------------------------------------------------------
 Adding empirical dispersion correction 
 ----------------------------------------------------------------
 Doing -D3(0) with
 s6  =   1.00000
 s8  =   1.00000
 rs6 =   1.28100
 rs8 =   1.09400
 -D3 energy without 3body term =     -0.0042121555 hartrees
 ----------------------------------------------------------------
             Standard Nuclear Orientation (Angstroms)
    I     Atom           X                Y                Z
 ----------------------------------------------------------------
    1      C       0.8307922300    -0.7048456058    -0.8852956015
    2      C       0.5109759458    -0.3056908715     0.5864450874
    3      C       1.0450587946     1.0991201864     0.9066749562
    4      C      -0.2781807860    -0.3554983178    -1.8149022222
    5      C      -1.3939889782    -0.0192680251    -0.8828018624
    6      C      -1.0335263038    -0.3775367119     0.5852897280
    7      H       0.7270397925    -1.8140079154    -0.9914380894
    8      H       1.8457712903    -0.4788722376    -1.2442170339
    9      H       0.9448222643    -1.0213519794     1.2999178382
   10      H       2.1401873353     1.1329025365     0.8149047777
   11      H       0.7809061967     1.3978222557     1.9309804232
   12      H       0.6325963613     1.8528928177     0.2191113847
   13      H      -2.3941670518    -0.3168457959    -1.2298862181
   14      H      -1.3739955509     1.0878406975    -1.0186226000
   15      H      -1.3683248070    -1.4036466872     0.8007514366
   16      H      -1.4971177329     0.2873416538     1.3268209955
 ----------------------------------------------------------------
 Nuclear Repulsion Energy =   235.1515424880 hartrees
 There are       23 alpha and       23 beta electrons
 Requested basis set is def2-TZVP
 There are 106 shells and 246 basis functions

 Total QAlloc Memory Limit  96000 MB
 Mega-Array Size       188 MB
 MEM_STATIC part       192 MB
 A cutoff of  1.0D-11 yielded   5448 shell pairs
 There are     30104 function pairs (     38092 Cartesian)
 
 -------------------------------------------------------
 OpenMP Integral Computing Module                       
 Release: version 1.0, May 2013, Q-Chem Inc. Pittsburgh 
 -------------------------------------------------------
 Integral Job Info:
 Integral job number is                      11
 Integral operator is                         1
 short-range coefficients              19572800
 long-range coefficients              100000000
 Omega coefficients                         250
 if combine SR and LR in K                    1
 Integral screening is                        0
 Integral computing path is                   2
 max size of driver memory is            800000
 size of driver memory is                776718
 size of scratch memory is              4473992
 max col of scratch BK array              10000
 max len of scratch array in speh3          662
 max len of scratch index in speh4           32
 max int batch size is                      520
 min int batch size is                       52
 fixed nKL is                                52
 max L of basis functions is                  3
 order of int derivative is                   0
 number of shells is                        106
 number of basis is                         276
 number of cartesian basis is               276
 number of contracted shell pairs          5448
 number of primitive shell pairs          12418
 maxK2 (contraction) of shell pair           36
 max number of K2 of shell pair               1
 max number of CS2 of shell pair            874
 max number of PS2 of shell pair           1608
 mem total for path MDJ                  587568
 -------------------------------------------------------
 Smallest overlap matrix eigenvalue = 1.50E-04

 Scale SEOQF with 1.000000e-01/1.000000e-01/1.000000e-01

 Standard Electronic Orientation quadrupole field applied
 Nucleus-field energy     =    -0.0000000017 hartrees
 Guess from superposition of atomic densities
 Warning:  Energy on first SCF cycle will be non-variational
 SAD guess density has 46.000000 electrons

 -----------------------------------------------------------------------
  General SCF calculation program by
  Eric Jon Sundstrom, Paul Horn, Yuezhi Mao, Dmitri Zuev, Alec White,
  David Stuck, Shaama M.S., Shane Yost, Joonho Lee, David Small,
  Daniel Levine, Susi Lehtola, Hugh Burton, Evgeny Epifanovsky
 -----------------------------------------------------------------------
 Exchange:     0.1957 Hartree-Fock + 1.0000 wB97X-D3 + LR-HF
 Correlation:  1.0000 wB97X-D3
 Using SG-2 standard quadrature grid
 Dispersion:   Grimme D3
 using 16 threads for integral computing
 -------------------------------------------------------
 OpenMP Integral computing Module                
 Release: version 1.0, May 2013, Q-Chem Inc. Pittsburgh 
 -------------------------------------------------------
 using 16 threads for integral computing
 -------------------------------------------------------
 OpenMP Integral computing Module                
 Release: version 1.0, May 2013, Q-Chem Inc. Pittsburgh 
 -------------------------------------------------------
 -------------------------------------------------------
 OpenMP BLAS3 based DFT computing Module                
 Release: version 1.0, May 2013, Q-Chem Inc. Pittsburgh 
 -------------------------------------------------------
 A unrestricted SCF calculation will be
 performed using DIIS
 SCF converges when DIIS error is below 1.0e-08
 ---------------------------------------
  Cycle       Energy         DIIS error
 ---------------------------------------
    1    -236.1537702715      1.66e-02  
    2    -234.4987764118      1.26e-03  
    3    -234.5293916356      8.93e-04  
    4    -234.5527326824      1.19e-04  
    5    -234.5532747334      4.29e-05  
    6    -234.5533497578      1.48e-05  
    7    -234.5533598227      3.22e-06  
    8    -234.5533607721      9.63e-07  
    9    -234.5533608372      2.90e-07  
   10    -234.5533608428      8.30e-08  
   11    -234.5533608433      3.32e-08  
   12    -234.5533608433      8.40e-09  Convergence criterion met
 ---------------------------------------
 SCF time:   CPU 753.07s  wall 49.00s 
<S^2> =          0.000000000
 SCF   energy in the final basis set =     -234.5533608433
 Total energy in the final basis set =     -234.5533608433
 No wavefunction analysis requested
 Calculating analytic gradient of the SCF energy
 Gradient of SCF Energy
            1           2           3           4           5           6
    1  -0.0002388   0.0019296   0.0005437   0.0003179   0.0005199  -0.0027450
    2   0.0020314  -0.0016599   0.0011353   0.0002920  -0.0019148   0.0009816
    3  -0.0016811   0.0048059  -0.0003922  -0.0131425  -0.0009913   0.0047212
            7           8           9          10          11          12
    1  -0.0004128   0.0051933   0.0018748   0.0048886  -0.0013298  -0.0018957
    2  -0.0048504   0.0008816  -0.0029638   0.0000387   0.0012941   0.0030749
    3   0.0003657  -0.0012944   0.0036388  -0.0004944   0.0044515  -0.0029316
           13          14          15          16
    1  -0.0054184   0.0000037  -0.0014397  -0.0017912
    2  -0.0012573   0.0046622  -0.0044761   0.0027304
    3  -0.0013406   0.0001594   0.0004086   0.0037169
 Max gradient component =       1.314E-02
 RMS gradient           =       3.215E-03
 Gradient time:  CPU 209.94 s  wall 13.86 s
 Geometry Optimization Parameters
   NAtoms,    NIC,     NZ,  NCons,   NDum,   NFix, NCnnct, MaxDiis
       16     121       0       0       0       0       0       0


** GEOMETRY OPTIMIZATION IN DELOCALIZED INTERNAL COORDINATES **
   Searching for a Minimum

   Optimization Cycle:   1

                       Coordinates (Angstroms)
     ATOM                X               Y               Z
      1  C         0.8307922300   -0.7048456058   -0.8852956015
      2  C         0.5109759458   -0.3056908715    0.5864450874
      3  C         1.0450587946    1.0991201864    0.9066749562
      4  C        -0.2781807860   -0.3554983178   -1.8149022222
      5  C        -1.3939889782   -0.0192680251   -0.8828018624
      6  C        -1.0335263038   -0.3775367119    0.5852897280
      7  H         0.7270397925   -1.8140079154   -0.9914380894
      8  H         1.8457712903   -0.4788722376   -1.2442170339
      9  H         0.9448222643   -1.0213519794    1.2999178382
     10  H         2.1401873353    1.1329025365    0.8149047777
     11  H         0.7809061967    1.3978222557    1.9309804232
     12  H         0.6325963613    1.8528928177    0.2191113847
     13  H        -2.3941670518   -0.3168457959   -1.2298862181
     14  H        -1.3739955509    1.0878406975   -1.0186226000
     15  H        -1.3683248070   -1.4036466872    0.8007514366
     16  H        -1.4971177329    0.2873416538    1.3268209955
   Point Group: c1    Number of degrees of freedom:    42


   Energy is   -234.553360843


 Attempting to Generate Delocalized Internal Coordinates

 42 Hessian modes will be used to form the next step
  Hessian Eigenvalues:
     0.003791    0.004331    0.005838    0.022628    0.032857    0.039523
     0.041032    0.047013    0.049424    0.054754    0.055201    0.055668
     0.059150    0.063040    0.066948    0.079023    0.108510    0.113945
     0.121398    0.127535    0.137038    0.160000    0.160000    0.160000
     0.181134    0.216008    0.258411    0.268876    0.272038    0.288180
     0.316604    0.320155    0.321470    0.327468    0.336111    0.336298
     0.336785    0.337104    0.337135    0.337390    0.337727    0.338411

 Minimum Search - Taking Simple RFO Step
 Searching for Lamda that Minimizes Along All modes
 Value Taken    Lamda =  -0.00213467
 Step Taken.  Stepsize is  0.096723

                             Maximum     Tolerance    Cnvgd?
         Gradient           0.017346      0.000100      NO
         Displacement       0.062525      0.000400      NO
         Energy change     *********      0.000000      NO


 New Cartesian Coordinates Obtained by Inverse Iteration

 Displacement from previous Coordinates is:  0.116861
 Adding empirical dispersion correction 
 ----------------------------------------------------------------
 Doing -D3(0) with
 s6  =   1.00000
 s8  =   1.00000
 rs6 =   1.28100
 rs8 =   1.09400
 -D3 energy without 3body term =     -0.0041908440 hartrees
 ----------------------------------------------------------------
             Standard Nuclear Orientation (Angstroms)
    I     Atom           X                Y                Z
 ----------------------------------------------------------------
    1      C       0.8287970337    -0.7035247392    -0.8752440052
    2      C       0.5069838294    -0.3020399249     0.5772996284
    3      C       1.0381238764     1.0910730184     0.9014788377
    4      C      -0.2792210747    -0.3586089644    -1.7888771980
    5      C      -1.3897966658    -0.0162503063    -0.8726206934
    6      C      -1.0256550622    -0.3739769977     0.5771947321
    7      H       0.7290172669    -1.8045217663    -0.9863375081
    8      H       1.8316804734    -0.4710840001    -1.2382566225
    9      H       0.9366859270    -1.0144656272     1.2844421921
   10      H       2.1259291443     1.1235890985     0.8134592585
   11      H       0.7752382077     1.3843107566     1.9196300813
   12      H       0.6323508042     1.8440782652     0.2207231673
   13      H      -2.3790407529    -0.3174485021    -1.2199044035
   14      H      -1.3683578317     1.0820351961    -1.0176672656
   15      H      -1.3583778628    -1.3919367492     0.7970691733
   16      H      -1.4855083129     0.2891272426     1.3113436254
 ----------------------------------------------------------------
 Nuclear Repulsion Energy =   237.0435031257 hartrees
 There are       23 alpha and       23 beta electrons
 Applying Cartesian multipole field
    Component          Value
    ---------          -----
     (2,0,0)        1.00000E-11
     (0,2,0)        2.00000E-11
     (0,0,2)       -3.00000E-11
 Nucleus-field energy     =    -0.0000000017 hartrees
 Requested basis set is def2-TZVP
 There are 106 shells and 246 basis functions
 A cutoff of  1.0D-11 yielded   5458 shell pairs
 There are     30164 function pairs (     38161 Cartesian)
 Smallest overlap matrix eigenvalue = 1.39E-04
 Guess MOs from SCF MO coefficient file
 Reading MOs from coefficient file
 Reading MOs from coefficient file

 -----------------------------------------------------------------------
  General SCF calculation program by
  Eric Jon Sundstrom, Paul Horn, Yuezhi Mao, Dmitri Zuev, Alec White,
  David Stuck, Shaama M.S., Shane Yost, Joonho Lee, David Small,
  Daniel Levine, Susi Lehtola, Hugh Burton, Evgeny Epifanovsky
 -----------------------------------------------------------------------
 Exchange:     0.1957 Hartree-Fock + 1.0000 wB97X-D3 + LR-HF
 Correlation:  1.0000 wB97X-D3
 Using SG-2 standard quadrature grid
 Dispersion:   Grimme D3
 using 16 threads for integral computing
 -------------------------------------------------------
 OpenMP Integral computing Module                
 Release: version 1.0, May 2013, Q-Chem Inc. Pittsburgh 
 -------------------------------------------------------
 using 16 threads for integral computing
 -------------------------------------------------------
 OpenMP Integral computing Module                
 Release: version 1.0, May 2013, Q-Chem Inc. Pittsburgh 
 -------------------------------------------------------
 -------------------------------------------------------
 OpenMP BLAS3 based DFT computing Module                
 Release: version 1.0, May 2013, Q-Chem Inc. Pittsburgh 
 -------------------------------------------------------
 A unrestricted SCF calculation will be
 performed using DIIS
 SCF converges when DIIS error is below 1.0e-08
 ---------------------------------------
  Cycle       Energy         DIIS error
 ---------------------------------------
    1    -234.5863717683      2.18e-04  
    2    -234.5543294434      4.85e-05  
    3    -234.5543710582      4.01e-05  
    4    -234.5544159680      2.99e-06  
    5    -234.5544166632      1.41e-06  
    6    -234.5544168574      7.63e-07  
    7    -234.5544169384      3.39e-07  
    8    -234.5544169770      1.32e-07  
    9    -234.5544169830      4.74e-08  
   10    -234.5544169834      1.91e-08  
   11    -234.5544169835      5.82e-09  Convergence criterion met
 ---------------------------------------
 SCF time:   CPU 750.02s  wall 49.00s 
<S^2> =          0.000000000
 SCF   energy in the final basis set =     -234.5544169835
 Total energy in the final basis set =     -234.5544169835
 No wavefunction analysis requested
 Calculating analytic gradient of the SCF energy
 Gradient of SCF Energy
            1           2           3           4           5           6
    1   0.0006134   0.0000356   0.0000509  -0.0000262  -0.0003540  -0.0002643
    2   0.0001123  -0.0002523   0.0003747  -0.0001030   0.0002520  -0.0000274
    3  -0.0003428   0.0003626  -0.0003248  -0.0000034  -0.0000798   0.0003380
            7           8           9          10          11          12
    1  -0.0002380   0.0001039  -0.0000168  -0.0001428  -0.0000687  -0.0000947
    2  -0.0001397   0.0001491   0.0000953  -0.0002468  -0.0001340  -0.0002889
    3   0.0004005   0.0004274  -0.0005555  -0.0000400  -0.0000319   0.0000081
           13          14          15          16
    1  -0.0000666   0.0001233   0.0002123   0.0001327
    2  -0.0001473   0.0002035  -0.0000220   0.0001746
    3   0.0003833   0.0003225  -0.0002744  -0.0005899
 Max gradient component =       6.134E-04
 RMS gradient           =       2.567E-04
 Gradient time:  CPU 190.39 s  wall 12.65 s
 Geometry Optimization Parameters
   NAtoms,    NIC,     NZ,  NCons,   NDum,   NFix, NCnnct, MaxDiis
       16     121       0       0       0       0       0       0

 Cartesian Hessian Update
 Hessian Updated using BFGS Update


** GEOMETRY OPTIMIZATION IN DELOCALIZED INTERNAL COORDINATES **
   Searching for a Minimum

   Optimization Cycle:   2

                       Coordinates (Angstroms)
     ATOM                X               Y               Z
      1  C         0.8287970337   -0.7035247392   -0.8752440052
      2  C         0.5069838294   -0.3020399249    0.5772996284
      3  C         1.0381238764    1.0910730184    0.9014788377
      4  C        -0.2792210747   -0.3586089644   -1.7888771980
      5  C        -1.3897966658   -0.0162503063   -0.8726206934
      6  C        -1.0256550622   -0.3739769977    0.5771947321
      7  H         0.7290172669   -1.8045217663   -0.9863375081
      8  H         1.8316804734   -0.4710840001   -1.2382566225
      9  H         0.9366859270   -1.0144656272    1.2844421921
     10  H         2.1259291443    1.1235890985    0.8134592585
     11  H         0.7752382077    1.3843107566    1.9196300813
     12  H         0.6323508042    1.8440782652    0.2207231673
     13  H        -2.3790407529   -0.3174485021   -1.2199044035
     14  H        -1.3683578317    1.0820351961   -1.0176672656
     15  H        -1.3583778628   -1.3919367492    0.7970691733
     16  H        -1.4855083129    0.2891272426    1.3113436254
   Point Group: c1    Number of degrees of freedom:    42


   Energy is   -234.554416983

 Hessian Updated using BFGS Update

 41 Hessian modes will be used to form the next step
  Hessian Eigenvalues:
     0.003785    0.004331    0.005841    0.022608    0.032908    0.039607
     0.041064    0.047164    0.049425    0.054411    0.055199    0.055667
     0.059148    0.062962    0.066969    0.079045    0.108124    0.113374
     0.121237    0.126946    0.137029    0.159724    0.160001    0.181593
     0.218260    0.258553    0.270933    0.276480    0.291296    0.313775
     0.317602    0.320393    0.326859    0.336016    0.336326    0.336464
     0.336987    0.337315    0.337636    0.337971    0.345019

 Minimum Search - Taking Simple RFO Step
 Searching for Lamda that Minimizes Along All modes
 Value Taken    Lamda =  -0.00003062
 Step Taken.  Stepsize is  0.036126

                             Maximum     Tolerance    Cnvgd?
         Gradient           0.000908      0.000100      NO
         Displacement       0.017457      0.000400      NO
         Energy change     -0.001056      0.000000      NO


 New Cartesian Coordinates Obtained by Inverse Iteration

 Displacement from previous Coordinates is:  0.055384
 Adding empirical dispersion correction 
 ----------------------------------------------------------------
 Doing -D3(0) with
 s6  =   1.00000
 s8  =   1.00000
 rs6 =   1.28100
 rs8 =   1.09400
 -D3 energy without 3body term =     -0.0041957874 hartrees
 ----------------------------------------------------------------
             Standard Nuclear Orientation (Angstroms)
    I     Atom           X                Y                Z
 ----------------------------------------------------------------
    1      C       0.8274600241    -0.7017798328    -0.8770090386
    2      C       0.5065606770    -0.3007040665     0.5767325829
    3      C       1.0419630088     1.0903318225     0.9058147179
    4      C      -0.2812626309    -0.3609692033    -1.7902661457
    5      C      -1.3922385774    -0.0208334551    -0.8749242017
    6      C      -1.0264246622    -0.3704023458     0.5773128578
    7      H       0.7323222351    -1.8025740699    -0.9912511062
    8      H       1.8281003620    -0.4664656591    -1.2440331957
    9      H       0.9333091105    -1.0143152478     1.2853257395
   10      H       2.1301239693     1.1210270972     0.8198586968
   11      H       0.7792028850     1.3820325584     1.9243981758
   12      H       0.6406229883     1.8480577268     0.2274108480
   13      H      -2.3793984440    -0.3271331393    -1.2234038138
   14      H      -1.3761010147     1.0761790362    -1.0273725253
   15      H      -1.3605455218    -1.3865268353     0.8036881425
   16      H      -1.4848454088     0.2944316136     1.3114512659
 ----------------------------------------------------------------
 Nuclear Repulsion Energy =   236.9183672540 hartrees
 There are       23 alpha and       23 beta electrons
 Applying Cartesian multipole field
    Component          Value
    ---------          -----
     (2,0,0)        1.00000E-11
     (0,2,0)        2.00000E-11
     (0,0,2)       -3.00000E-11
 Nucleus-field energy     =    -0.0000000017 hartrees
 Requested basis set is def2-TZVP
 There are 106 shells and 246 basis functions
 A cutoff of  1.0D-11 yielded   5453 shell pairs
 There are     30149 function pairs (     38146 Cartesian)
 Smallest overlap matrix eigenvalue = 1.40E-04
 Guess MOs from SCF MO coefficient file
 Reading MOs from coefficient file
 Reading MOs from coefficient file

 -----------------------------------------------------------------------
  General SCF calculation program by
  Eric Jon Sundstrom, Paul Horn, Yuezhi Mao, Dmitri Zuev, Alec White,
  David Stuck, Shaama M.S., Shane Yost, Joonho Lee, David Small,
  Daniel Levine, Susi Lehtola, Hugh Burton, Evgeny Epifanovsky
 -----------------------------------------------------------------------
 Exchange:     0.1957 Hartree-Fock + 1.0000 wB97X-D3 + LR-HF
 Correlation:  1.0000 wB97X-D3
 Using SG-2 standard quadrature grid
 Dispersion:   Grimme D3
 using 16 threads for integral computing
 -------------------------------------------------------
 OpenMP Integral computing Module                
 Release: version 1.0, May 2013, Q-Chem Inc. Pittsburgh 
 -------------------------------------------------------
 using 16 threads for integral computing
 -------------------------------------------------------
 OpenMP Integral computing Module                
 Release: version 1.0, May 2013, Q-Chem Inc. Pittsburgh 
 -------------------------------------------------------
 -------------------------------------------------------
 OpenMP BLAS3 based DFT computing Module                
 Release: version 1.0, May 2013, Q-Chem Inc. Pittsburgh 
 -------------------------------------------------------
 A unrestricted SCF calculation will be
 performed using DIIS
 SCF converges when DIIS error is below 1.0e-08
 ---------------------------------------
  Cycle       Energy         DIIS error
 ---------------------------------------
    1    -234.5535040735      4.02e-05  
    2    -234.5544306434      5.58e-06  
    3    -234.5544327231      1.87e-06  
    4    -234.5544329164      9.36e-07  
    5    -234.5544329646      2.90e-07  
    6    -234.5544329729      1.17e-07  
    7    -234.5544329756      6.28e-08  
    8    -234.5544329764      2.75e-08  
    9    -234.5544329766      1.18e-08  
   10    -234.5544329766      4.69e-09  Convergence criterion met
 ---------------------------------------
 SCF time:   CPU 687.95s  wall 45.00s 
<S^2> =          0.000000000
 SCF   energy in the final basis set =     -234.5544329766
 Total energy in the final basis set =     -234.5544329766
 No wavefunction analysis requested
 Calculating analytic gradient of the SCF energy
 Gradient of SCF Energy
            1           2           3           4           5           6
    1   0.0001392  -0.0001725   0.0000793   0.0000205  -0.0001977   0.0000820
    2  -0.0001180  -0.0002030   0.0002069   0.0000371   0.0000270   0.0001327
    3  -0.0003662   0.0001714   0.0000600  -0.0000934  -0.0003393   0.0003301
            7           8           9          10          11          12
    1  -0.0001297  -0.0001135  -0.0000031  -0.0000853   0.0000425   0.0000538
    2   0.0000746   0.0000334   0.0000523  -0.0000219   0.0000012  -0.0001081
    3   0.0001182   0.0001229  -0.0000568   0.0000048  -0.0000759   0.0000676
           13          14          15          16
    1   0.0000883   0.0000747   0.0000858   0.0000358
    2  -0.0000312  -0.0001517   0.0000673   0.0000015
    3   0.0001169   0.0001184  -0.0000895  -0.0000892
 Max gradient component =       3.662E-04
 RMS gradient           =       1.307E-04
 Gradient time:  CPU 187.54 s  wall 12.41 s
 Geometry Optimization Parameters
   NAtoms,    NIC,     NZ,  NCons,   NDum,   NFix, NCnnct, MaxDiis
       16     121       0       0       0       0       0       0

 Cartesian Hessian Update
 Hessian Updated using BFGS Update


** GEOMETRY OPTIMIZATION IN DELOCALIZED INTERNAL COORDINATES **
   Searching for a Minimum

   Optimization Cycle:   3

                       Coordinates (Angstroms)
     ATOM                X               Y               Z
      1  C         0.8274600241   -0.7017798328   -0.8770090386
      2  C         0.5065606770   -0.3007040665    0.5767325829
      3  C         1.0419630088    1.0903318225    0.9058147179
      4  C        -0.2812626309   -0.3609692033   -1.7902661457
      5  C        -1.3922385774   -0.0208334551   -0.8749242017
      6  C        -1.0264246622   -0.3704023458    0.5773128578
      7  H         0.7323222351   -1.8025740699   -0.9912511062
      8  H         1.8281003620   -0.4664656591   -1.2440331957
      9  H         0.9333091105   -1.0143152478    1.2853257395
     10  H         2.1301239693    1.1210270972    0.8198586968
     11  H         0.7792028850    1.3820325584    1.9243981758
     12  H         0.6406229883    1.8480577268    0.2274108480
     13  H        -2.3793984440   -0.3271331393   -1.2234038138
     14  H        -1.3761010147    1.0761790362   -1.0273725253
     15  H        -1.3605455218   -1.3865268353    0.8036881425
     16  H        -1.4848454088    0.2944316136    1.3114512659
   Point Group: c1    Number of degrees of freedom:    42


   Energy is   -234.554432977

 Hessian Updated using BFGS Update

 42 Hessian modes will be used to form the next step
  Hessian Eigenvalues:
     0.003988    0.004335    0.005838    0.022263    0.034017    0.040299
     0.040643    0.047116    0.049352    0.054049    0.055216    0.055665
     0.059103    0.060917    0.066786    0.078916    0.098638    0.110549
     0.120039    0.124318    0.136894    0.159199    0.160000    0.160356
     0.185865    0.221737    0.258607    0.270517    0.279933    0.301963
     0.315279    0.317296    0.324434    0.326767    0.335701    0.336151
     0.336717    0.337085    0.337352    0.337709    0.337991    0.342090

 Minimum Search - Taking Simple RFO Step
 Searching for Lamda that Minimizes Along All modes
 Value Taken    Lamda =  -0.00000280
 Step Taken.  Stepsize is  0.009555

                             Maximum     Tolerance    Cnvgd?
         Gradient           0.000266      0.000100      NO
         Displacement       0.004714      0.000400      NO
         Energy change     -0.000016      0.000000      NO


 New Cartesian Coordinates Obtained by Inverse Iteration

 Displacement from previous Coordinates is:  0.010879
 Adding empirical dispersion correction 
 ----------------------------------------------------------------
 Doing -D3(0) with
 s6  =   1.00000
 s8  =   1.00000
 rs6 =   1.28100
 rs8 =   1.09400
 -D3 energy without 3body term =     -0.0041962890 hartrees
 ----------------------------------------------------------------
             Standard Nuclear Orientation (Angstroms)
    I     Atom           X                Y                Z
 ----------------------------------------------------------------
    1      C       0.8276238787    -0.7024052620    -0.8764701777
    2      C       0.5066537436    -0.3009419934     0.5768966730
    3      C       1.0413793912     1.0903732969     0.9051285576
    4      C      -0.2814512705    -0.3619549679    -1.7893675063
    5      C      -1.3918882359    -0.0198884706    -0.8742296941
    6      C      -1.0266354481    -0.3712346670     0.5774749296
    7      H       0.7339900300    -1.8033409141    -0.9916957997
    8      H       1.8279413111    -0.4666121264    -1.2446540009
    9      H       0.9334293225    -1.0140677782     1.2862156721
   10      H       2.1296635348     1.1218331839     0.8189395519
   11      H       0.7786406345     1.3822782256     1.9237748081
   12      H       0.6395065085     1.8479851619     0.2265365207
   13      H      -2.3794596660    -0.3242948378    -1.2237136474
   14      H      -1.3743318374     1.0772644992    -1.0273322456
   15      H      -1.3613007464    -1.3874262877     0.8035410433
   16      H      -1.4849121504     0.2927889375     1.3126883155
 ----------------------------------------------------------------
 Nuclear Repulsion Energy =   236.9242952178 hartrees
 There are       23 alpha and       23 beta electrons
 Applying Cartesian multipole field
    Component          Value
    ---------          -----
     (2,0,0)        1.00000E-11
     (0,2,0)        2.00000E-11
     (0,0,2)       -3.00000E-11
 Nucleus-field energy     =    -0.0000000017 hartrees
 Requested basis set is def2-TZVP
 There are 106 shells and 246 basis functions
 A cutoff of  1.0D-11 yielded   5453 shell pairs
 There are     30149 function pairs (     38146 Cartesian)
 Smallest overlap matrix eigenvalue = 1.40E-04
 Guess MOs from SCF MO coefficient file
 Reading MOs from coefficient file
 Reading MOs from coefficient file

 -----------------------------------------------------------------------
  General SCF calculation program by
  Eric Jon Sundstrom, Paul Horn, Yuezhi Mao, Dmitri Zuev, Alec White,
  David Stuck, Shaama M.S., Shane Yost, Joonho Lee, David Small,
  Daniel Levine, Susi Lehtola, Hugh Burton, Evgeny Epifanovsky
 -----------------------------------------------------------------------
 Exchange:     0.1957 Hartree-Fock + 1.0000 wB97X-D3 + LR-HF
 Correlation:  1.0000 wB97X-D3
 Using SG-2 standard quadrature grid
 Dispersion:   Grimme D3
 using 16 threads for integral computing
 -------------------------------------------------------
 OpenMP Integral computing Module                
 Release: version 1.0, May 2013, Q-Chem Inc. Pittsburgh 
 -------------------------------------------------------
 using 16 threads for integral computing
 -------------------------------------------------------
 OpenMP Integral computing Module                
 Release: version 1.0, May 2013, Q-Chem Inc. Pittsburgh 
 -------------------------------------------------------
 -------------------------------------------------------
 OpenMP BLAS3 based DFT computing Module                
 Release: version 1.0, May 2013, Q-Chem Inc. Pittsburgh 
 -------------------------------------------------------
 A unrestricted SCF calculation will be
 performed using DIIS
 SCF converges when DIIS error is below 1.0e-08
 ---------------------------------------
  Cycle       Energy         DIIS error
 ---------------------------------------
    1    -234.5541633675      1.13e-05  
    2    -234.5544341311      1.50e-06  
    3    -234.5544343034      6.84e-07  
    4    -234.5544343332      3.47e-07  
    5    -234.5544343462      1.44e-07  
    6    -234.5544343508      7.30e-08  
    7    -234.5544343524      3.46e-08  
    8    -234.5544343527      1.26e-08  
    9    -234.5544343527      4.27e-09  Convergence criterion met
 ---------------------------------------
 SCF time:   CPU 617.81s  wall 40.00s 
<S^2> =          0.000000000
 SCF   energy in the final basis set =     -234.5544343527
 Total energy in the final basis set =     -234.5544343527
 No wavefunction analysis requested
 Calculating analytic gradient of the SCF energy
 Gradient of SCF Energy
            1           2           3           4           5           6
    1   0.0000760  -0.0000893   0.0000394  -0.0000099  -0.0000111   0.0000383
    2   0.0000136   0.0000537  -0.0000027  -0.0000830   0.0001095  -0.0000939
    3  -0.0001654   0.0000331   0.0000157   0.0000821  -0.0001144   0.0000835
            7           8           9          10          11          12
    1  -0.0000792  -0.0000160   0.0000137   0.0000209   0.0000175   0.0000086
    2   0.0000065  -0.0000101  -0.0000129   0.0000074   0.0000013   0.0000137
    3   0.0000055   0.0000223   0.0000216  -0.0000042  -0.0000113  -0.0000186
           13          14          15          16
    1   0.0000136   0.0000085  -0.0000235  -0.0000076
    2  -0.0000003  -0.0000147   0.0000034   0.0000085
    3   0.0000116  -0.0000007   0.0000344   0.0000049
 Max gradient component =       1.654E-04
 RMS gradient           =       4.902E-05
 Gradient time:  CPU 190.99 s  wall 12.62 s
 Geometry Optimization Parameters
   NAtoms,    NIC,     NZ,  NCons,   NDum,   NFix, NCnnct, MaxDiis
       16     121       0       0       0       0       0       0

 Cartesian Hessian Update
 Hessian Updated using BFGS Update


** GEOMETRY OPTIMIZATION IN DELOCALIZED INTERNAL COORDINATES **
   Searching for a Minimum

   Optimization Cycle:   4

                       Coordinates (Angstroms)
     ATOM                X               Y               Z
      1  C         0.8276238787   -0.7024052620   -0.8764701777
      2  C         0.5066537436   -0.3009419934    0.5768966730
      3  C         1.0413793912    1.0903732969    0.9051285576
      4  C        -0.2814512705   -0.3619549679   -1.7893675063
      5  C        -1.3918882359   -0.0198884706   -0.8742296941
      6  C        -1.0266354481   -0.3712346670    0.5774749296
      7  H         0.7339900300   -1.8033409141   -0.9916957997
      8  H         1.8279413111   -0.4666121264   -1.2446540009
      9  H         0.9334293225   -1.0140677782    1.2862156721
     10  H         2.1296635348    1.1218331839    0.8189395519
     11  H         0.7786406345    1.3822782256    1.9237748081
     12  H         0.6395065085    1.8479851619    0.2265365207
     13  H        -2.3794596660   -0.3242948378   -1.2237136474
     14  H        -1.3743318374    1.0772644992   -1.0273322456
     15  H        -1.3613007464   -1.3874262877    0.8035410433
     16  H        -1.4849121504    0.2927889375    1.3126883155
   Point Group: c1    Number of degrees of freedom:    42


   Energy is   -234.554434353

 Hessian Updated using BFGS Update

 42 Hessian modes will be used to form the next step
  Hessian Eigenvalues:
     0.004115    0.004337    0.006019    0.021008    0.035756    0.039644
     0.040556    0.045824    0.049056    0.054965    0.055238    0.055680
     0.058439    0.062928    0.066735    0.079049    0.095463    0.111836
     0.119466    0.123859    0.137140    0.159608    0.160146    0.160493
     0.185750    0.221766    0.258606    0.268737    0.280827    0.292940
     0.313772    0.317798    0.321624    0.327919    0.335644    0.336184
     0.336972    0.337181    0.337472    0.337670    0.339814    0.347062

 Minimum Search - Taking Simple RFO Step
 Searching for Lamda that Minimizes Along All modes
 Value Taken    Lamda =   0.00000000
 Step Taken.  Stepsize is  0.003854

                             Maximum     Tolerance    Cnvgd?
         Gradient           0.000076      0.000100     YES
         Displacement       0.001748      0.000400      NO
         Energy change     -0.000001      0.000000      NO


 New Cartesian Coordinates Obtained by Inverse Iteration

 Displacement from previous Coordinates is:  0.003827
 Adding empirical dispersion correction 
 ----------------------------------------------------------------
 Doing -D3(0) with
 s6  =   1.00000
 s8  =   1.00000
 rs6 =   1.28100
 rs8 =   1.09400
 -D3 energy without 3body term =     -0.0041962545 hartrees
 ----------------------------------------------------------------
             Standard Nuclear Orientation (Angstroms)
    I     Atom           X                Y                Z
 ----------------------------------------------------------------
    1      C       0.8276452959    -0.7023703147    -0.8762822261
    2      C       0.5066587917    -0.3011154482     0.5769150864
    3      C       1.0414182903     1.0900826235     0.9050973474
    4      C      -0.2813845255    -0.3616445184    -1.7892744249
    5      C      -1.3920250725    -0.0200643167    -0.8741500862
    6      C      -1.0267046409    -0.3708722754     0.5774336467
    7      H       0.7350481570    -1.8033787245    -0.9919339389
    8      H       1.8278367150    -0.4659931706    -1.2445888595
    9      H       0.9331748694    -1.0143246807     1.2862748798
   10      H       2.1297012559     1.1213832673     0.8188031189
   11      H       0.7787382370     1.3820315050     1.9237699030
   12      H       0.6395722969     1.8477098745     0.2265015467
   13      H      -2.3795375034    -0.3247368419    -1.2237153471
   14      H      -1.3749822627     1.0771264047    -1.0274888999
   15      H      -1.3616101717    -1.3869160977     0.8037825285
   16      H      -1.4847007321     0.2934387138     1.3125887251
 ----------------------------------------------------------------
 Nuclear Repulsion Energy =   236.9297497323 hartrees
 There are       23 alpha and       23 beta electrons
 Applying Cartesian multipole field
    Component          Value
    ---------          -----
     (2,0,0)        1.00000E-11
     (0,2,0)        2.00000E-11
     (0,0,2)       -3.00000E-11
 Nucleus-field energy     =    -0.0000000017 hartrees
 Requested basis set is def2-TZVP
 There are 106 shells and 246 basis functions
 A cutoff of  1.0D-11 yielded   5453 shell pairs
 There are     30149 function pairs (     38146 Cartesian)
 Smallest overlap matrix eigenvalue = 1.40E-04
 Guess MOs from SCF MO coefficient file
 Reading MOs from coefficient file
 Reading MOs from coefficient file

 -----------------------------------------------------------------------
  General SCF calculation program by
  Eric Jon Sundstrom, Paul Horn, Yuezhi Mao, Dmitri Zuev, Alec White,
  David Stuck, Shaama M.S., Shane Yost, Joonho Lee, David Small,
  Daniel Levine, Susi Lehtola, Hugh Burton, Evgeny Epifanovsky
 -----------------------------------------------------------------------
 Exchange:     0.1957 Hartree-Fock + 1.0000 wB97X-D3 + LR-HF
 Correlation:  1.0000 wB97X-D3
 Using SG-2 standard quadrature grid
 Dispersion:   Grimme D3
 using 16 threads for integral computing
 -------------------------------------------------------
 OpenMP Integral computing Module                
 Release: version 1.0, May 2013, Q-Chem Inc. Pittsburgh 
 -------------------------------------------------------
 using 16 threads for integral computing
 -------------------------------------------------------
 OpenMP Integral computing Module                
 Release: version 1.0, May 2013, Q-Chem Inc. Pittsburgh 
 -------------------------------------------------------
 -------------------------------------------------------
 OpenMP BLAS3 based DFT computing Module                
 Release: version 1.0, May 2013, Q-Chem Inc. Pittsburgh 
 -------------------------------------------------------
 A unrestricted SCF calculation will be
 performed using DIIS
 SCF converges when DIIS error is below 1.0e-08
 ---------------------------------------
  Cycle       Energy         DIIS error
 ---------------------------------------
    1    -234.5543504793      4.41e-06  
    2    -234.5544345307      6.21e-07  
    3    -234.5544345562      3.07e-07  
    4    -234.5544345612      1.30e-07  
    5    -234.5544345633      6.31e-08  
    6    -234.5544345642      3.30e-08  
    7    -234.5544345645      1.50e-08  
    8    -234.5544345645      4.77e-09  Convergence criterion met
 ---------------------------------------
 SCF time:   CPU 551.72s  wall 35.00s 
<S^2> =          0.000000000
 SCF   energy in the final basis set =     -234.5544345645
 Total energy in the final basis set =     -234.5544345645
 No wavefunction analysis requested
 Calculating analytic gradient of the SCF energy
 Gradient of SCF Energy
            1           2           3           4           5           6
    1   0.0000095  -0.0000101  -0.0000031   0.0000191  -0.0000214   0.0000379
    2   0.0000529   0.0000299  -0.0000401  -0.0000171  -0.0000140   0.0000095
    3  -0.0000258   0.0000049  -0.0000200   0.0000624  -0.0000160  -0.0000149
            7           8           9          10          11          12
    1  -0.0000378  -0.0000016   0.0000102   0.0000194   0.0000091   0.0000083
    2  -0.0000361  -0.0000244  -0.0000097  -0.0000087   0.0000019   0.0000159
    3  -0.0000051  -0.0000044   0.0000123  -0.0000127   0.0000021  -0.0000180
           13          14          15          16
    1  -0.0000192   0.0000052  -0.0000177  -0.0000078
    2   0.0000070   0.0000100   0.0000086   0.0000147
    3   0.0000023   0.0000006   0.0000154   0.0000170
 Max gradient component =       6.235E-05
 RMS gradient           =       2.072E-05
 Gradient time:  CPU 185.60 s  wall 12.24 s
 Geometry Optimization Parameters
   NAtoms,    NIC,     NZ,  NCons,   NDum,   NFix, NCnnct, MaxDiis
       16     121       0       0       0       0       0       0

 Cartesian Hessian Update
 Hessian Updated using BFGS Update


** GEOMETRY OPTIMIZATION IN DELOCALIZED INTERNAL COORDINATES **
   Searching for a Minimum

   Optimization Cycle:   5

                       Coordinates (Angstroms)
     ATOM                X               Y               Z
      1  C         0.8276452959   -0.7023703147   -0.8762822261
      2  C         0.5066587917   -0.3011154482    0.5769150864
      3  C         1.0414182903    1.0900826235    0.9050973474
      4  C        -0.2813845255   -0.3616445184   -1.7892744249
      5  C        -1.3920250725   -0.0200643167   -0.8741500862
      6  C        -1.0267046409   -0.3708722754    0.5774336467
      7  H         0.7350481570   -1.8033787245   -0.9919339389
      8  H         1.8278367150   -0.4659931706   -1.2445888595
      9  H         0.9331748694   -1.0143246807    1.2862748798
     10  H         2.1297012559    1.1213832673    0.8188031189
     11  H         0.7787382370    1.3820315050    1.9237699030
     12  H         0.6395722969    1.8477098745    0.2265015467
     13  H        -2.3795375034   -0.3247368419   -1.2237153471
     14  H        -1.3749822627    1.0771264047   -1.0274888999
     15  H        -1.3616101717   -1.3869160977    0.8037825285
     16  H        -1.4847007321    0.2934387138    1.3125887251
   Point Group: c1    Number of degrees of freedom:    42


   Energy is   -234.554434565

 Hessian Updated using BFGS Update

 42 Hessian modes will be used to form the next step
  Hessian Eigenvalues:
     0.003898    0.004336    0.006324    0.018620    0.035755    0.038641
     0.040646    0.047161    0.049581    0.052082    0.055272    0.055677
     0.057746    0.063598    0.066572    0.079119    0.096837    0.111595
     0.120659    0.123327    0.136010    0.158815    0.160325    0.161341
     0.185652    0.222675    0.258380    0.267445    0.274045    0.300846
     0.312055    0.320257    0.323102    0.331283    0.336105    0.336479
     0.337129    0.337423    0.337655    0.339024    0.339720    0.347663

 Minimum Search - Taking Simple RFO Step
 Searching for Lamda that Minimizes Along All modes
 Value Taken    Lamda =   0.00000000
 Step Taken.  Stepsize is  0.002444

                             Maximum     Tolerance    Cnvgd?
         Gradient           0.000037      0.000100     YES
         Displacement       0.001186      0.000400      NO
         Energy change     -0.000000      0.000000     YES

 Final energy is   -234.554434564537     


 ******************************
 **  OPTIMIZATION CONVERGED  **
 ******************************

                       Coordinates (Angstroms)
     ATOM                X               Y               Z
      1  C         0.8276452959   -0.7023703147   -0.8762822261
      2  C         0.5066587917   -0.3011154482    0.5769150864
      3  C         1.0414182903    1.0900826235    0.9050973474
      4  C        -0.2813845255   -0.3616445184   -1.7892744249
      5  C        -1.3920250725   -0.0200643167   -0.8741500862
      6  C        -1.0267046409   -0.3708722754    0.5774336467
      7  H         0.7350481570   -1.8033787245   -0.9919339389
      8  H         1.8278367150   -0.4659931706   -1.2445888595
      9  H         0.9331748694   -1.0143246807    1.2862748798
     10  H         2.1297012559    1.1213832673    0.8188031189
     11  H         0.7787382370    1.3820315050    1.9237699030
     12  H         0.6395722969    1.8477098745    0.2265015467
     13  H        -2.3795375034   -0.3247368419   -1.2237153471
     14  H        -1.3749822627    1.0771264047   -1.0274888999
     15  H        -1.3616101717   -1.3869160977    0.8037825285
     16  H        -1.4847007321    0.2934387138    1.3125887251

Z-matrix Print:
$molecule
0 1
C 
H  1 1.092600
C  1 1.526140 2 108.581164
H  3 1.091755 1 111.106714 2 -59.256123 0
H  3 1.092148 1 110.995502 2 60.694472 0
H  3 1.093605 1 111.674521 2 -179.625487 0
C  1 1.534949 2 111.105112 3 -124.914837 0
H  7 1.091569 1 113.061099 2 88.848420 0
H  7 1.093499 1 110.380295 2 -31.361413 0
C  7 1.537407 1 103.102087 2 -148.300383 0
H  10 1.090964 7 116.993947 1 159.695318 0
H  10 1.107985 7 110.669215 1 -81.135274 0
C  10 1.479071 7 110.673932 1 25.878051 0
C  13 1.476345 10 103.577222 7 -9.130713 0
H  14 1.091745 13 115.442774 10 -148.173627 0
H  14 1.110932 13 95.839172 10 102.349455 0
$end

 No wavefunction analysis requested
Archival summary:
1\1\nid00470\OPT\ProcedureUnspecified\BasisUnspecified\610\cgrambow\FriFeb1503:52:192019FriFeb1503:52:192019\0\\#,OPT,ProcedureUnspecified,BasisUnspecified,\\0,1\C\H,1,1.0926\C,1,1.52614,2,108.581\H,3,1.09175,1,111.107,2,-59.2561,0\H,3,1.09215,1,110.996,2,60.6945,0\H,3,1.0936,1,111.675,2,-179.625,0\C,1,1.53495,2,111.105,3,-124.915,0\H,7,1.09157,1,113.061,2,88.8484,0\H,7,1.0935,1,110.38,2,-31.3614,0\C,7,1.53741,1,103.102,2,-148.3,0\H,10,1.09096,7,116.994,1,159.695,0\H,10,1.10798,7,110.669,1,-81.1353,0\C,10,1.47907,7,110.674,1,25.8781,0\C,13,1.47635,10,103.577,7,-9.13071,0\H,14,1.09174,13,115.443,10,-148.174,0\H,14,1.11093,13,95.8392,10,102.349,0\\\@

 Total job time:  285.63s(wall), 4366.96s(cpu) 
 Fri Feb 15 03:52:19 2019

        *************************************************************
        *                                                           *
        *  Thank you very much for using Q-Chem.  Have a nice day.  *
        *                                                           *
        *************************************************************



Running Job 2 of 2 prod_optfreq0080.in
qchem prod_optfreq0080.in_64313.1 /tmp/qchem64313/ 1
/global/common/cori/software/qchem/5.1/exe/qcprog.exe prod_optfreq0080.in_64313.1 /tmp/qchem64313/
Check license passed

                  Welcome to Q-Chem
     A Quantum Leap Into The Future Of Chemistry


 Q-Chem 5.1, Q-Chem, Inc., Pleasanton, CA (2018)

 Yihan Shao,  Zhengting Gan,  E. Epifanovsky,  A. T. B. Gilbert,  M. Wormit,  
 J. Kussmann,  A. W. Lange,  A. Behn,  Jia Deng,  Xintian Feng,  D. Ghosh,  
 M. Goldey,  P. R. Horn,  L. D. Jacobson,  I. Kaliman,  T. Kus,  A. Landau,  
 Jie Liu,  E. I. Proynov,  R. M. Richard,  R. P. Steele,  E. J. Sundstrom,  
 H. L. Woodcock III,  P. M. Zimmerman,  D. Zuev,  B. Albrecht,  E. Alguire,  
 S. A. Baeppler,  D. Barton,  Z. Benda,  Y. A. Bernard,  E. J. Berquist,  
 K. B. Bravaya,  H. Burton,  D. Casanova,  Chun-Min Chang,  Yunqing Chen,  
 A. Chien,  K. D. Closser,  M. P. Coons,  S. Coriani,  S. Dasgupta,  
 A. L. Dempwolff,  M. Diedenhofen,  Hainam Do,  R. G. Edgar,  Po-Tung Fang,  
 S. Faraji,  S. Fatehi,  Qingguo Feng,  K. D. Fenk,  J. Fosso-Tande,  
 Qinghui Ge,  A. Ghysels,  G. Gidofalvi,  J. Gomes,  J. Gonthier,  A. Gunina,  
 D. Hait,  M. W. D. Hanson-Heine,  P. H. P. Harbach,  A. W. Hauser,  
 J. E. Herr,  E. G. Hohenstein,  Z. C. Holden,  Kerwin Hui,  B. C. Huynh,  
 T.-C. Jagau,  Hyunjun Ji,  B. Kaduk,  K. Khistyaev,  Jaehoon Kim,  
 P. Klunzinger,  K. Koh,  D. Kosenkov,  L. Koulias,  T. Kowalczyk,  
 C. M. Krauter,  A. Kunitsa,  Ka Un Lao,  A. Laurent,  K. V. Lawler,  
 Joonho Lee,  D. Lefrancois,  S. Lehtola,  D. S. Levine,  Yi-Pei Li,  
 You-Sheng Lin,  Fenglai Liu,  E. Livshits,  A. Luenser,  P. Manohar,  
 E. Mansoor,  S. F. Manzer,  Shan-Ping Mao,  Yuezhi Mao,  N. Mardirossian,  
 A. V. Marenich,  T. Markovich,  L. A. Martinez-Martinez,  S. A. Maurer,  
 N. J. Mayhall,  S. C. McKenzie,  J.-M. Mewes,  A. F. Morrison,  
 J. W. Mullinax,  K. Nanda,  T. S. Nguyen-Beck,  R. Olivares-Amaya,  
 J. A. Parkhill,  T. M. Perrine,  F. Plasser,  P. Pokhilko,  S. Prager,  
 A. Prociuk,  E. Ramos,  D. R. Rehn,  F. Rob,  M. Schneider,  N. Sergueev,  
 S. M. Sharada,  S. Sharma,  D. W. Small,  T. Stauch,  T. Stein,  
 Yu-Chuan Su,  A. J. W. Thom,  A. Tkatchenko,  T. Tsuchimochi,  N. M. Tubman,  
 L. Vogt,  M. L. Vidal,  O. Vydrov,  M. A. Watson,  J. Wenzel,  
 M. de Wergifosse,  T. A. Wesolowski,  A. White,  J. Witte,  A. Yamada,  
 Jun Yang,  K. Yao,  S. Yeganeh,  S. R. Yost,  Zhi-Qiang You,  A. Zech,  
 Igor Ying Zhang,  Xing Zhang,  Yan Zhao,  Ying Zhu,  B. R. Brooks,  
 G. K. L. Chan,  C. J. Cramer,  M. S. Gordon,  W. J. Hehre,  A. Klamt,  
 M. W. Schmidt,  C. D. Sherrill,  D. G. Truhlar,  A. Aspuru-Guzik,  R. Baer,  
 A. T. Bell,  N. A. Besley,  Jeng-Da Chai,  R. A. DiStasio Jr.,  A. Dreuw,  
 B. D. Dunietz,  T. R. Furlani,  Chao-Ping Hsu,  Yousung Jung,  Jing Kong,  
 D. S. Lambrecht,  WanZhen Liang,  C. Ochsenfeld,  V. A. Rassolov,  
 L. V. Slipchenko,  J. E. Subotnik,  T. Van Voorhis,  J. M. Herbert,  
 A. I. Krylov,  P. M. W. Gill,  M. Head-Gordon

 Contributors to earlier versions of Q-Chem not listed above: 
 R. D. Adamson,  B. Austin,  J. Baker,  G. J. O. Beran,  K. Brandhorst,  
 S. T. Brown,  E. F. C. Byrd,  A. K. Chakraborty,  C.-L. Cheng,  
 Siu Hung Chien,  D. M. Chipman,  D. L. Crittenden,  H. Dachsel,  
 R. J. Doerksen,  A. D. Dutoi,  L. Fusti-Molnar,  W. A. Goddard III,  
 A. Golubeva-Zadorozhnaya,  S. R. Gwaltney,  G. Hawkins,  A. Heyden,  
 S. Hirata,  G. Kedziora,  F. J. Keil,  C. Kelley,  Jihan Kim,  R. A. King,  
 R. Z. Khaliullin,  P. P. Korambath,  W. Kurlancheek,  A. M. Lee,  M. S. Lee,  
 S. V. Levchenko,  Ching Yeh Lin,  D. Liotard,  R. C. Lochan,  I. Lotan,  
 P. E. Maslen,  N. Nair,  D. P. O'Neill,  D. Neuhauser,  E. Neuscamman,  
 C. M. Oana,  R. Olson,  B. Peters,  R. Peverati,  P. A. Pieniazek,  
 Y. M. Rhee,  J. Ritchie,  M. A. Rohrdanz,  E. Rosta,  N. J. Russ,  
 H. F. Schaefer III,  N. E. Schultz,  N. Shenvi,  A. C. Simmonett,  A. Sodt,  
 D. Stuck,  K. S. Thanthiriwatte,  V. Vanovschi,  Tao Wang,  A. Warshel,  
 C. F. Williams,  Q. Wu,  X. Xu,  W. Zhang

 Please cite Q-Chem as follows:
 Y. Shao et al., Mol. Phys. 113, 184-215 (2015)
 DOI: 10.1080/00268976.2014.952696

 Q-Chem 5.1.0 for Intel X86 EM64T Linux

 Parts of Q-Chem use Armadillo 8.300.2 (Tropical Shenanigans).
 http://arma.sourceforge.net/

 Q-Chem begins on Fri Feb 15 03:52:19 2019  

Host: cori05
0

     Scratch files written to /tmp/qchem64313//
 Jun2518 |scratch|qcdevops|jenkins|workspace|build_RNUM -1
Processing $rem in /global/common/cori/software/qchem/5.1/config/preferences.
 MEM_TOTAL  96000 
The previous job contains 0 fragments, simply inherited here

Checking the input file for inconsistencies... 	...done.

--------------------------------------------------------------
User input:
--------------------------------------------------------------

$molecule
read
$end

$rem
JOBTYPE                   FREQ
METHOD                    wB97X-D3
BASIS                     def2-TZVP
UNRESTRICTED              TRUE
SCF_GUESS                 READ
SCF_ALGORITHM             DIIS
MAX_SCF_CYCLES            100
SCF_CONVERGENCE           8
SYM_IGNORE                TRUE
SYMMETRY                  FALSE
WAVEFUNCTION_ANALYSIS     FALSE
$end
--------------------------------------------------------------
 Adding empirical dispersion correction 
 ----------------------------------------------------------------
 Doing -D3(0) with
 s6  =   1.00000
 s8  =   1.00000
 rs6 =   1.28100
 rs8 =   1.09400
 -D3 energy without 3body term =     -0.0041962545 hartrees
 ----------------------------------------------------------------
             Standard Nuclear Orientation (Angstroms)
    I     Atom           X                Y                Z
 ----------------------------------------------------------------
    1      C       0.8276452959    -0.7023703147    -0.8762822261
    2      C       0.5066587917    -0.3011154482     0.5769150864
    3      C       1.0414182903     1.0900826235     0.9050973474
    4      C      -0.2813845255    -0.3616445184    -1.7892744249
    5      C      -1.3920250725    -0.0200643167    -0.8741500862
    6      C      -1.0267046409    -0.3708722754     0.5774336467
    7      H       0.7350481570    -1.8033787245    -0.9919339389
    8      H       1.8278367150    -0.4659931706    -1.2445888595
    9      H       0.9331748694    -1.0143246807     1.2862748798
   10      H       2.1297012559     1.1213832673     0.8188031189
   11      H       0.7787382370     1.3820315050     1.9237699030
   12      H       0.6395722969     1.8477098745     0.2265015467
   13      H      -2.3795375034    -0.3247368419    -1.2237153471
   14      H      -1.3749822627     1.0771264047    -1.0274888999
   15      H      -1.3616101717    -1.3869160977     0.8037825285
   16      H      -1.4847007321     0.2934387138     1.3125887251
 ----------------------------------------------------------------
 Nuclear Repulsion Energy =   236.9297497323 hartrees
 There are       23 alpha and       23 beta electrons
 Requested basis set is def2-TZVP
 There are 106 shells and 246 basis functions

 Total QAlloc Memory Limit  96000 MB
 Mega-Array Size       188 MB
 MEM_STATIC part       192 MB
 A cutoff of  1.0D-11 yielded   5453 shell pairs
 There are     30149 function pairs (     38146 Cartesian)
 
 -------------------------------------------------------
 OpenMP Integral Computing Module                       
 Release: version 1.0, May 2013, Q-Chem Inc. Pittsburgh 
 -------------------------------------------------------
 Integral Job Info:
 Integral job number is                      11
 Integral operator is                         1
 short-range coefficients              19572800
 long-range coefficients              100000000
 Omega coefficients                         250
 if combine SR and LR in K                    1
 Integral screening is                        0
 Integral computing path is                   2
 max size of driver memory is            800000
 size of driver memory is                776718
 size of scratch memory is              4473992
 max col of scratch BK array              10000
 max len of scratch array in speh3          662
 max len of scratch index in speh4           32
 max int batch size is                      520
 min int batch size is                       52
 fixed nKL is                                52
 max L of basis functions is                  3
 order of int derivative is                   0
 number of shells is                        106
 number of basis is                         276
 number of cartesian basis is               276
 number of contracted shell pairs          5453
 number of primitive shell pairs          12435
 maxK2 (contraction) of shell pair           36
 max number of K2 of shell pair               1
 max number of CS2 of shell pair            876
 max number of PS2 of shell pair           1608
 mem total for path MDJ                  587568
 -------------------------------------------------------
 Smallest overlap matrix eigenvalue = 1.40E-04

 -----------------------------------------------------------------------
  General SCF calculation program by
  Eric Jon Sundstrom, Paul Horn, Yuezhi Mao, Dmitri Zuev, Alec White,
  David Stuck, Shaama M.S., Shane Yost, Joonho Lee, David Small,
  Daniel Levine, Susi Lehtola, Hugh Burton, Evgeny Epifanovsky
 -----------------------------------------------------------------------
 Exchange:     0.1957 Hartree-Fock + 1.0000 wB97X-D3 + LR-HF
 Correlation:  1.0000 wB97X-D3
 Using SG-2 standard quadrature grid
 Dispersion:   Grimme D3
 using 16 threads for integral computing
 -------------------------------------------------------
 OpenMP Integral computing Module                
 Release: version 1.0, May 2013, Q-Chem Inc. Pittsburgh 
 -------------------------------------------------------
 using 16 threads for integral computing
 -------------------------------------------------------
 OpenMP Integral computing Module                
 Release: version 1.0, May 2013, Q-Chem Inc. Pittsburgh 
 -------------------------------------------------------
 -------------------------------------------------------
 OpenMP BLAS3 based DFT computing Module                
 Release: version 1.0, May 2013, Q-Chem Inc. Pittsburgh 
 -------------------------------------------------------
 A unrestricted SCF calculation will be
 performed using DIIS
 SCF converges when DIIS error is below 1.0e-08
 ---------------------------------------
  Cycle       Energy         DIIS error
 ---------------------------------------
    1    -234.5544345648      1.64e-09  
    2    -234.5544345648      1.00e-09  Convergence criterion met
 ---------------------------------------
 SCF time:   CPU 147.62s  wall 10.00s 
<S^2> =          0.000000000
 SCF   energy in the final basis set =     -234.5544345648
 Total energy in the final basis set =     -234.5544345648
 No wavefunction analysis requested
 Calculating MO derivatives via CPSCF
 D1JvT checksum  = 2361792 61608.6754565438
 D1KAT checksum  = 4753152 5304.6708129512
 D1JvT checksum  = 2361792 42117.0073572475
 D1KAT checksum  = 4753152 2462.7715270652
   1         3          48      0.221070    0.021885
   2         3          48      0.040258    0.005436
   3         3          48      0.007030    0.001182
   4         3          48      0.001118    0.000218
   5        26          25      0.000127    0.000030
   6        47           4      0.000008    0.000003
   7        51           0      0.000000    0.000000    Roots Converged
 Time for AOints: 568.8 s (CPU) 37.9 s (wall)
 ------------------------------------------------------------------------------
                     AOints        : Timing summary (seconds)
 ------------------------------------------------------------------------------
     job step          cpu (% of tot)      sys (% of tot)     wall (% of tot)
 ------------------------------------------------------------------------------
  cpscf_lag         0.3632E+04 (38.0)   0.7141E-02 (60.7)   0.8194E+03 (40.1)
  iterzp            0.5348E+04 (56.0)   0.3936E-02 (33.5)   0.1187E+04 (58.1)
  make_fx           0.0000E+00 ( 0.0)   0.0000E+00 ( 0.0)   0.0000E+00 ( 0.0)
  AOints            0.5688E+03 ( 6.0)   0.6650E-03 ( 5.7)   0.3790E+02 ( 1.9)
 ------------------------------------------------------------------------------
   Grand Totals     0.9549E+04          0.1176E-01          0.2045E+04
 ------------------------------------------------------------------------------
 Calculating analytic Hessian of the SCF energy
 Polarizability Matrix (a.u.)
            1           2           3
    1 -71.3345930   0.2719784  -1.6707360
    2   0.2719784 -62.5438415  -2.5468663
    3  -1.6707360  -2.5468663 -69.9435343
 Running MAKENN_D3_FD2ND
 
 Direct stationary perturbation theory relativistic correction:
 
 rels  =       0.053132592437
 relv  =      -0.258166363330
 rel2e =       0.000000000000
 E_rel =      -0.205033770892
 
 Hessian of the SCF Energy
            1           2           3           4           5           6
    1   0.6144174   0.0313881  -0.0461859  -0.0864147   0.0043335   0.0220953
    2   0.0313881   0.4324597   0.0172304   0.0005266  -0.0824636  -0.0254549
    3  -0.0461859   0.0172304   0.4311279   0.0173480  -0.0207514  -0.1466432
    4  -0.0864147   0.0005266   0.0173480   0.4891128  -0.0247354   0.0777071
    5   0.0043335  -0.0824636  -0.0207514  -0.0247354   0.5372958  -0.0603346
    6   0.0220953  -0.0254549  -0.1466432   0.0777071  -0.0603346   0.5225076
    7   0.0032262   0.0065137   0.0005338  -0.0929736  -0.0353699  -0.0100677
    8  -0.0028029  -0.0111465  -0.0078464  -0.0353228  -0.1830670  -0.0191411
    9  -0.0118901  -0.0314939  -0.0087398  -0.0108639  -0.0212090  -0.0845031
   10  -0.1510612   0.0050707  -0.0980926   0.0036692   0.0033364  -0.0184074
   11   0.0181272  -0.0254062   0.0327836  -0.0006500   0.0073860   0.0010376
   12  -0.0514917   0.0080907  -0.1324022  -0.0141172   0.0097412  -0.0375663
   13  -0.0456678   0.0234600   0.0104168  -0.0227856   0.0104558  -0.0274607
   14   0.0224782   0.0050114  -0.0062364   0.0018703   0.0005866  -0.0037844
   15  -0.0101425   0.0052643  -0.0005023  -0.0222042   0.0046646  -0.0068384
   16  -0.0232669   0.0021399   0.0220675  -0.1758950  -0.0051478  -0.0012427
   17   0.0114241   0.0006690  -0.0057022  -0.0053859  -0.0825582  -0.0000484
   18   0.0271604   0.0028333  -0.0083739   0.0015926   0.0016097  -0.0728278
   19  -0.0340176   0.0027543  -0.0017674  -0.0010072   0.0036556   0.0007953
   20  -0.0193471  -0.2786186  -0.0208554  -0.0014143  -0.0060251   0.0005128
   21  -0.0029386  -0.0022221  -0.0340111  -0.0005922  -0.0302441  -0.0044685
   22  -0.2694641  -0.0617081   0.0851329  -0.0019002  -0.0012961  -0.0015664
   23  -0.0602618  -0.0477285   0.0167844   0.0078216   0.0008604  -0.0016960
   24   0.0828940   0.0158654  -0.0835097   0.0232819   0.0073935  -0.0043878
   25   0.0045233  -0.0065293   0.0070167  -0.0873251   0.0676515  -0.0658565
   26  -0.0048421   0.0054007  -0.0074834   0.0692352  -0.1621262   0.1137240
   27  -0.0130228   0.0164123  -0.0173728  -0.0669971   0.1130359  -0.1591280
   28   0.0007050   0.0003715   0.0008315  -0.0104151   0.0012657   0.0007115
   29  -0.0002401   0.0010914   0.0014087  -0.0319955   0.0002307   0.0017860
   30  -0.0011850   0.0002319   0.0007890  -0.0070814   0.0000739  -0.0009518
   31  -0.0003511  -0.0022444   0.0006330   0.0014011  -0.0033443  -0.0120629
   32  -0.0031199  -0.0050914   0.0002961   0.0076002  -0.0078330  -0.0300001
   33  -0.0003918  -0.0016677   0.0012274   0.0015489  -0.0003189  -0.0055934
   34   0.0002791   0.0007694  -0.0000291   0.0045678  -0.0085639   0.0085825
   35  -0.0000020   0.0017932   0.0007829   0.0123940  -0.0215086   0.0201811
   36   0.0006125   0.0001387   0.0007848   0.0038687  -0.0057243   0.0049584
   37  -0.0027310   0.0009872   0.0015396  -0.0003907   0.0001665   0.0007214
   38   0.0030029   0.0023624   0.0001797   0.0013022  -0.0004134   0.0016107
   39   0.0018670  -0.0062821  -0.0018780  -0.0001874   0.0020646  -0.0055822
   40  -0.0047625  -0.0024208   0.0004358   0.0002663   0.0008747  -0.0001750
   41   0.0007657   0.0008540  -0.0017797  -0.0009210  -0.0003902   0.0006249
   42   0.0034618   0.0000539   0.0008237   0.0007618  -0.0000309  -0.0007569
   43   0.0002745  -0.0000556  -0.0002369  -0.0090916  -0.0317030   0.0047420
   44  -0.0005427   0.0003434   0.0000408   0.0014467  -0.0004847  -0.0008947
   45   0.0003496   0.0008493   0.0004979  -0.0015473  -0.0021847  -0.0004720
   46  -0.0056885  -0.0010234   0.0003564  -0.0108182   0.0184208   0.0214844
   47  -0.0003610   0.0004697   0.0011484  -0.0017718   0.0005106   0.0018770
   48  -0.0011921   0.0001506  -0.0018176  -0.0025183   0.0022144   0.0022534
            7           8           9          10          11          12
    1   0.0032262  -0.0028029  -0.0118901  -0.1510612   0.0181272  -0.0514917
    2   0.0065137  -0.0111465  -0.0314939   0.0050707  -0.0254062   0.0080907
    3   0.0005338  -0.0078464  -0.0087398  -0.0980926   0.0327836  -0.1324022
    4  -0.0929736  -0.0353228  -0.0108639   0.0036692  -0.0006500  -0.0141172
    5  -0.0353699  -0.1830670  -0.0212090   0.0033364   0.0073860   0.0097412
    6  -0.0100677  -0.0191411  -0.0845031  -0.0184074   0.0010376  -0.0375663
    7   0.5673660  -0.0298661  -0.0100183  -0.0017846   0.0000987   0.0003463
    8  -0.0298661   0.4959582  -0.0155808  -0.0002213   0.0003948   0.0008839
    9  -0.0100183  -0.0155808   0.5757353   0.0020899  -0.0001289  -0.0009330
   10  -0.0017846  -0.0002213   0.0020899   0.3259763  -0.0542115   0.0005341
   11   0.0000987   0.0003948  -0.0001289  -0.0542115   0.0849933   0.0012303
   12   0.0003463   0.0008839  -0.0009330   0.0005341   0.0012303   0.3318533
   13   0.0000683   0.0002750  -0.0004389  -0.1460476   0.0147102   0.0502101
   14  -0.0004682   0.0010655  -0.0004663   0.0048150  -0.0307052  -0.0104685
   15  -0.0000423  -0.0013096   0.0000776   0.0988777  -0.0334357  -0.1314115
   16  -0.0146527  -0.0059200   0.0010158   0.0034683   0.0001791   0.0147926
   17  -0.0334235  -0.0013788   0.0016507   0.0038056   0.0071905  -0.0093034
   18  -0.0059217  -0.0003357   0.0000698   0.0176574  -0.0014087  -0.0390169
   19   0.0005033  -0.0000674  -0.0006873   0.0037295   0.0119106   0.0022817
   20   0.0009438   0.0008439  -0.0018445   0.0045886  -0.0178832   0.0007948
   21   0.0024833  -0.0005828  -0.0053865   0.0080280   0.0085062   0.0002480
   22   0.0005972   0.0000177  -0.0004279  -0.0175609  -0.0029703   0.0073347
   23   0.0008925   0.0009703   0.0000526   0.0134312  -0.0057422  -0.0014229
   24   0.0006905   0.0014355   0.0017444  -0.0150854  -0.0087820   0.0098858
   25   0.0047076  -0.0093811   0.0077362  -0.0015576   0.0007468   0.0015117
   26   0.0112871  -0.0232987   0.0200054  -0.0005989   0.0002252  -0.0023012
   27   0.0029212  -0.0062104   0.0055576  -0.0008137  -0.0002027  -0.0054754
   28  -0.3140818  -0.0040990   0.0215422  -0.0003953   0.0004724  -0.0002745
   29  -0.0026424  -0.0467568  -0.0000839  -0.0001537   0.0001556  -0.0002757
   30   0.0220827   0.0000637  -0.0495773  -0.0002268   0.0002763   0.0000947
   31  -0.0644274   0.0171621   0.0625223  -0.0001022   0.0004224  -0.0002123
   32   0.0162116  -0.0645276  -0.0630476   0.0009746   0.0001468  -0.0004878
   33   0.0619057  -0.0642406  -0.2832381   0.0003988  -0.0001829   0.0004961
   34  -0.0844758   0.0676338  -0.0623083   0.0003288  -0.0002261  -0.0002479
   35   0.0673715  -0.1701643   0.1122188   0.0003879  -0.0004648  -0.0008567
   36  -0.0625080   0.1127738  -0.1518959  -0.0003205  -0.0001368   0.0003732
   37   0.0000890   0.0001054  -0.0000407  -0.0180188  -0.0037720  -0.0070106
   38   0.0003630  -0.0002925   0.0000809   0.0138058  -0.0045621   0.0011353
   39  -0.0002907   0.0005051   0.0002051   0.0142693   0.0103277   0.0092755
   40  -0.0003728  -0.0000192  -0.0004027   0.0019998   0.0142572  -0.0024252
   41  -0.0000026  -0.0005109  -0.0003010   0.0048329  -0.0162341   0.0001568
   42  -0.0002555  -0.0001347  -0.0001828  -0.0078200  -0.0092582   0.0009101
   43  -0.0061396   0.0013359   0.0014579  -0.0010604   0.0000124   0.0003620
   44  -0.0009619   0.0011397  -0.0001248   0.0007741   0.0004295   0.0004123
   45  -0.0015947  -0.0002235   0.0005238  -0.0017744  -0.0006821  -0.0008517
   46   0.0023506   0.0011699   0.0007138  -0.0015833   0.0008929  -0.0015936
   47  -0.0009473   0.0007707   0.0002722  -0.0006372   0.0000762   0.0026711
   48  -0.0002646  -0.0000565   0.0005429   0.0006857   0.0000562  -0.0054797
           13          14          15          16          17          18
    1  -0.0456678   0.0224782  -0.0101425  -0.0232669   0.0114241   0.0271604
    2   0.0234600   0.0050114   0.0052643   0.0021399   0.0006690   0.0028333
    3   0.0104168  -0.0062364  -0.0005023   0.0220675  -0.0057022  -0.0083739
    4  -0.0227856   0.0018703  -0.0222042  -0.1758950  -0.0053859   0.0015926
    5   0.0104558   0.0005866   0.0046646  -0.0051478  -0.0825582   0.0016097
    6  -0.0274607  -0.0037844  -0.0068384  -0.0012427  -0.0000484  -0.0728278
    7   0.0000683  -0.0004682  -0.0000423  -0.0146527  -0.0334235  -0.0059217
    8   0.0002750   0.0010655  -0.0013096  -0.0059200  -0.0013788  -0.0003357
    9  -0.0004389  -0.0004663   0.0000776   0.0010158   0.0016507   0.0000698
   10  -0.1460476   0.0048150   0.0988777   0.0034683   0.0038056   0.0176574
   11   0.0147102  -0.0307052  -0.0334357   0.0001791   0.0071905  -0.0014087
   12   0.0502101  -0.0104685  -0.1314115   0.0147926  -0.0093034  -0.0390169
   13   0.6036647   0.0321804   0.0472692  -0.0860373   0.0024294  -0.0240893
   14   0.0321804   0.4420134  -0.0174987  -0.0003830  -0.0849265   0.0279357
   15   0.0472692  -0.0174987   0.4342065  -0.0213888   0.0234993  -0.1523492
   16  -0.0860373  -0.0003830  -0.0213888   0.4708174   0.0051032  -0.0872930
   17   0.0024294  -0.0849265   0.0234993   0.0051032   0.5974571   0.0366885
   18  -0.0240893   0.0279357  -0.1523492  -0.0872930   0.0366885   0.5089542
   19  -0.0046920  -0.0020423  -0.0001706   0.0004261   0.0008985  -0.0002014
   20   0.0007390   0.0012430   0.0020094  -0.0008953   0.0001994  -0.0006540
   21  -0.0035371  -0.0001459   0.0006434  -0.0007726   0.0002884  -0.0003116
   22  -0.0027270   0.0012196  -0.0015197  -0.0002948  -0.0000159  -0.0006520
   23   0.0031848   0.0032473  -0.0000868   0.0013544  -0.0002061  -0.0013501
   24  -0.0022163   0.0058225  -0.0019113   0.0004505  -0.0024325  -0.0053544
   25  -0.0053955  -0.0007456  -0.0002200  -0.0118009   0.0188039  -0.0215562
   26  -0.0004929   0.0008451  -0.0012120  -0.0020960   0.0004368  -0.0015429
   27   0.0012150  -0.0006284  -0.0019258   0.0032064  -0.0022357   0.0031637
   28   0.0002866  -0.0005002   0.0003699   0.0005886  -0.0027673   0.0001760
   29  -0.0000210  -0.0003455   0.0004740  -0.0007882  -0.0059074  -0.0012098
   30   0.0001978   0.0001705  -0.0000608   0.0001079  -0.0016400   0.0002484
   31  -0.0001399  -0.0000296  -0.0001711   0.0013955   0.0000786  -0.0009431
   32  -0.0001713  -0.0001434   0.0003928   0.0014495   0.0008397   0.0000016
   33  -0.0002160   0.0004060  -0.0001184   0.0004514   0.0001851   0.0002075
   34  -0.0002371  -0.0000064  -0.0002510   0.0006346   0.0002048   0.0005654
   35  -0.0004540  -0.0001268   0.0003217   0.0007458   0.0009556   0.0001151
   36  -0.0001804  -0.0000276  -0.0002602  -0.0000844   0.0006489   0.0001231
   37  -0.2658639  -0.0784080  -0.0804656  -0.0014036  -0.0010066   0.0013875
   38  -0.0771074  -0.0560367  -0.0211584   0.0084736   0.0016878   0.0017139
   39  -0.0775821  -0.0204709  -0.0798994  -0.0236795  -0.0091953  -0.0041409
   40  -0.0324087   0.0179345   0.0003277  -0.0010418   0.0041852  -0.0004111
   41  -0.0024320  -0.2814623   0.0296986  -0.0008910  -0.0048290   0.0005444
   42   0.0034555   0.0125170  -0.0374251  -0.0009377   0.0306602  -0.0060637
   43   0.0028815   0.0094059  -0.0031809  -0.0708580  -0.0722749   0.0188026
   44  -0.0015074  -0.0059189   0.0011485  -0.0736103  -0.2776924   0.0480698
   45   0.0096504   0.0291610  -0.0066412   0.0186011   0.0483799  -0.0583910
   46   0.0051014  -0.0073204  -0.0070881  -0.0920795   0.0679406   0.0737260
   47  -0.0052486   0.0056531   0.0072277   0.0702859  -0.1519375  -0.1130108
   48   0.0133060  -0.0162857  -0.0155839   0.0747053  -0.1114434  -0.1659372
           19          20          21          22          23          24
    1  -0.0340176  -0.0193471  -0.0029386  -0.2694641  -0.0602618   0.0828940
    2   0.0027543  -0.2786186  -0.0022221  -0.0617081  -0.0477285   0.0158654
    3  -0.0017674  -0.0208554  -0.0340111   0.0851329   0.0167844  -0.0835097
    4  -0.0010072  -0.0014143  -0.0005922  -0.0019002   0.0078216   0.0232819
    5   0.0036556  -0.0060251  -0.0302441  -0.0012961   0.0008604   0.0073935
    6   0.0007953   0.0005128  -0.0044685  -0.0015664  -0.0016960  -0.0043878
    7   0.0005033   0.0009438   0.0024833   0.0005972   0.0008925   0.0006905
    8  -0.0000674   0.0008439  -0.0005828   0.0000177   0.0009703   0.0014355
    9  -0.0006873  -0.0018445  -0.0053865  -0.0004279   0.0000526   0.0017444
   10   0.0037295   0.0045886   0.0080280  -0.0175609   0.0134312  -0.0150854
   11   0.0119106  -0.0178832   0.0085062  -0.0029703  -0.0057422  -0.0087820
   12   0.0022817   0.0007948   0.0002480   0.0073347  -0.0014229   0.0098858
   13  -0.0046920   0.0007390  -0.0035371  -0.0027270   0.0031848  -0.0022163
   14  -0.0020423   0.0012430  -0.0001459   0.0012196   0.0032473   0.0058225
   15  -0.0001706   0.0020094   0.0006434  -0.0015197  -0.0000868  -0.0019113
   16   0.0004261  -0.0008953  -0.0007726  -0.0002948   0.0013544   0.0004505
   17   0.0008985   0.0001994   0.0002884  -0.0000159  -0.0002061  -0.0024325
   18  -0.0002014  -0.0006540  -0.0003116  -0.0006520  -0.0013501  -0.0053544
   19   0.0349605   0.0155062  -0.0025479  -0.0010468  -0.0301098   0.0010706
   20   0.0155062   0.3068467   0.0195516   0.0002948  -0.0073841   0.0001490
   21  -0.0025479   0.0195516   0.0419564   0.0006185   0.0064382  -0.0004891
   22  -0.0010468   0.0002948   0.0006185   0.2940602   0.0628287  -0.0902775
   23  -0.0301098  -0.0073841   0.0064382   0.0628287   0.0566373  -0.0193551
   24   0.0010706   0.0001490  -0.0004891  -0.0902775  -0.0193551   0.0833213
   25   0.0004157   0.0000742  -0.0008470  -0.0002479  -0.0001235  -0.0000155
   26  -0.0002351   0.0012164   0.0000931   0.0002317   0.0000487   0.0003183
   27  -0.0003302  -0.0001218   0.0016789   0.0005137   0.0001891  -0.0008347
   28   0.0002084   0.0000587   0.0000303   0.0001758  -0.0002459  -0.0007203
   29   0.0001704   0.0000832   0.0003253   0.0004053   0.0000541  -0.0005892
   30   0.0001791   0.0001155   0.0001214   0.0002685  -0.0001954  -0.0003497
   31   0.0002172  -0.0001855  -0.0006077   0.0001339  -0.0001159  -0.0003067
   32  -0.0002273  -0.0004814  -0.0015514   0.0001017  -0.0000620   0.0001470
   33  -0.0001386  -0.0002382  -0.0005792  -0.0001296   0.0001918   0.0001914
   34  -0.0000969   0.0000191   0.0001578  -0.0001099   0.0001472  -0.0001063
   35  -0.0000776   0.0002417   0.0000172   0.0002043  -0.0002359  -0.0003552
   36   0.0000914   0.0001490   0.0001011   0.0001565   0.0001173   0.0000634
   37  -0.0005563   0.0002545  -0.0001623  -0.0007719   0.0008073  -0.0001007
   38  -0.0004800   0.0000437  -0.0005583   0.0006163  -0.0007442   0.0000211
   39   0.0015436  -0.0002562   0.0013379   0.0000674  -0.0000856  -0.0000102
   40   0.0010514  -0.0011602   0.0002489  -0.0006348  -0.0005907  -0.0013515
   41  -0.0010549  -0.0001600  -0.0005144   0.0002694   0.0001114   0.0002620
[...]

 Mode:                16                     17                     18
 Frequency:      1019.02                1053.51                1123.04
 Force Cnst:      0.8363                 1.0508                 1.1969
 Red. Mass:       1.3669                 1.6070                 1.6108
 IR Active:          YES                    YES                    YES
 IR Intens:        3.054                  2.111                  4.484
 Raman Active:       YES                    YES                    YES
               X      Y      Z        X      Y      Z        X      Y      Z
 C         -0.043 -0.013 -0.049   -0.053 -0.009  0.006   -0.069 -0.034  0.008
 C         -0.022  0.068  0.046   -0.112 -0.029 -0.128    0.080  0.007 -0.016
 C          0.005 -0.059 -0.004    0.042  0.055  0.096   -0.072 -0.000  0.045
 C          0.077 -0.037  0.050    0.060 -0.009  0.041    0.149 -0.008  0.005
 C         -0.033 -0.003 -0.055   -0.000 -0.013  0.022   -0.067 -0.033  0.020
 C          0.045  0.033  0.020    0.043  0.003 -0.012   -0.032  0.073 -0.018
 H         -0.037  0.006 -0.349    0.043 -0.018  0.051    0.050 -0.035 -0.098
 H         -0.143  0.077 -0.268   -0.018  0.043  0.143   -0.149  0.095 -0.137
 H         -0.236  0.049  0.153   -0.312 -0.367 -0.356    0.511 -0.041 -0.323
 H         -0.002  0.087  0.005    0.017  0.210 -0.153   -0.073 -0.306 -0.138
 H         -0.093 -0.062 -0.030    0.072  0.468 -0.018    0.176  0.199  0.046
 H         -0.116 -0.138 -0.021   -0.089 -0.228 -0.159    0.120 -0.031 -0.100
 H         -0.005  0.111 -0.233    0.028 -0.000 -0.057   -0.218  0.102  0.329
 H         -0.027  0.053  0.480    0.055 -0.016  0.016   -0.001 -0.017  0.157
 H          0.467 -0.052  0.249    0.117 -0.013  0.020   -0.049  0.032 -0.215
 H         -0.150 -0.003 -0.068    0.336 -0.048  0.211   -0.235 -0.048 -0.035
 TransDip   0.055  0.002 -0.008    0.028 -0.036 -0.007    0.049 -0.046 -0.010

 Mode:                19                     20                     21
 Frequency:      1170.54                1197.53                1225.63
 Force Cnst:      1.0247                 1.3867                 1.6087
 Red. Mass:       1.2693                 1.6412                 1.8176
 IR Active:          YES                    YES                    YES
 IR Intens:        4.140                  1.335                  2.302
 Raman Active:       YES                    YES                    YES
               X      Y      Z        X      Y      Z        X      Y      Z
 C          0.041 -0.028  0.022   -0.001  0.047 -0.017   -0.011 -0.012  0.099
 C          0.021 -0.001 -0.043    0.016 -0.152  0.019    0.134  0.069 -0.063
 C         -0.032  0.005  0.037   -0.035  0.077 -0.042   -0.033 -0.043  0.053
 C         -0.112 -0.008  0.024   -0.036 -0.006 -0.001   -0.043 -0.006 -0.089
 C          0.018  0.025 -0.024    0.013 -0.071 -0.022    0.028 -0.035  0.076
 C          0.024  0.013  0.023    0.006  0.124 -0.000   -0.103  0.023 -0.049
 H          0.009  0.000 -0.348    0.036  0.018  0.295   -0.088  0.029 -0.331
 H          0.240 -0.051  0.542    0.039 -0.075  0.019   -0.079  0.069 -0.032
 H          0.210 -0.052 -0.207   -0.080 -0.206  0.024   -0.119  0.266  0.289
 H         -0.036 -0.110 -0.095   -0.014 -0.107  0.082   -0.045 -0.114 -0.147
 H          0.094  0.150  0.024    0.108 -0.075  0.043    0.074  0.128  0.024
 H          0.057 -0.039 -0.067    0.174  0.312  0.101    0.011 -0.190 -0.136
 H          0.106 -0.023 -0.236    0.101  0.026 -0.350    0.205 -0.053 -0.399
 H         -0.041  0.037  0.075    0.002 -0.004  0.578    0.075 -0.029  0.160
 H          0.216 -0.027  0.114    0.094  0.032 -0.264   -0.088  0.010 -0.090
 H         -0.374  0.053 -0.263   -0.013 -0.147  0.229    0.381 -0.066  0.334
 TransDip  -0.007  0.057 -0.031    0.017 -0.001  0.033    0.030  0.038 -0.007

 Mode:                22                     23                     24
 Frequency:      1279.82                1288.12                1333.58
 Force Cnst:      1.4094                 1.9958                 1.5746
 Red. Mass:       1.4604                 2.0415                 1.5028
 IR Active:          YES                    YES                    YES
 IR Intens:        3.300                 28.791                  0.545
 Raman Active:       YES                    YES                    YES
               X      Y      Z        X      Y      Z        X      Y      Z
 C         -0.028 -0.015 -0.104   -0.092  0.026 -0.102    0.056 -0.020  0.038
 C         -0.075  0.080  0.078    0.046 -0.030  0.063   -0.071 -0.001  0.087
 C          0.044 -0.049 -0.002   -0.023  0.012 -0.022    0.013 -0.004 -0.027
 C          0.004 -0.010  0.042    0.099 -0.023 -0.033   -0.050  0.011 -0.011
 C         -0.027 -0.034  0.001   -0.107  0.052  0.182    0.054 -0.004 -0.003
 C          0.045  0.014 -0.029   -0.023 -0.006 -0.084   -0.099  0.029 -0.101
 H          0.104 -0.033 -0.045    0.195 -0.021  0.184   -0.040 -0.006 -0.102
 H          0.163 -0.042  0.385    0.079 -0.092  0.270   -0.015 -0.014 -0.159
 H          0.406  0.231 -0.059    0.019 -0.061  0.053    0.480 -0.107 -0.347
 H          0.036  0.128  0.038   -0.010 -0.061  0.059    0.019  0.037  0.094
 H         -0.122 -0.021 -0.048    0.058 -0.052  0.020   -0.021 -0.018 -0.024
 H         -0.147 -0.125  0.025    0.050  0.090  0.029   -0.045  0.060  0.079
 H          0.043 -0.041 -0.181    0.187 -0.160 -0.445    0.012  0.028  0.098
 H          0.074 -0.009  0.261    0.291 -0.020 -0.393   -0.060 -0.006 -0.015
 H         -0.377  0.085 -0.353    0.331 -0.033  0.299    0.471 -0.061  0.316
 H          0.266 -0.011  0.130   -0.016  0.036 -0.119    0.358 -0.043  0.248
 TransDip   0.052 -0.023  0.012    0.124 -0.119  0.005   -0.001  0.024 -0.002

 Mode:                25                     26                     27
 Frequency:      1346.47                1375.20                1392.54
 Force Cnst:      1.6852                 1.3433                 1.3628
 Red. Mass:       1.5777                 1.2056                 1.1928
 IR Active:          YES                    YES                    YES
 IR Intens:        0.608                  3.558                 23.624
 Raman Active:       YES                    YES                    YES
               X      Y      Z        X      Y      Z        X      Y      Z
 C         -0.087  0.037 -0.095    0.029 -0.014 -0.021    0.020 -0.046 -0.060
 C          0.068 -0.030 -0.033   -0.047 -0.087 -0.056    0.054  0.051  0.044
 C         -0.017 -0.014  0.023    0.011 -0.033  0.032   -0.019  0.012 -0.024
 C          0.009 -0.002  0.078    0.007 -0.005 -0.003    0.014 -0.020  0.011
 C          0.078 -0.015 -0.075   -0.015  0.022 -0.005    0.024 -0.016  0.017
 C         -0.087 -0.000 -0.022    0.000  0.021 -0.003   -0.010 -0.012 -0.013
 H          0.258 -0.006  0.103   -0.408  0.000  0.251   -0.465 -0.022  0.127
 H          0.151 -0.202  0.388   -0.075  0.449  0.040   -0.009  0.549  0.280
 H         -0.066  0.264  0.351    0.271  0.425  0.275   -0.174 -0.250 -0.120
 H         -0.015  0.040 -0.032    0.006  0.214 -0.035   -0.006 -0.099  0.090
 H          0.082  0.072  0.024    0.039  0.232 -0.032    0.066 -0.101  0.029
 H          0.076 -0.022 -0.044    0.066  0.026  0.050   -0.023  0.004 -0.022
 H         -0.160  0.233  0.371    0.042 -0.192  0.039   -0.055  0.318 -0.085
 H         -0.287 -0.003 -0.020    0.157  0.023  0.049   -0.312 -0.023 -0.078
 H          0.219 -0.060  0.182    0.153 -0.016  0.062   -0.071  0.015  0.024
 H          0.158 -0.028  0.158   -0.083 -0.005 -0.036    0.063 -0.029  0.051
 TransDip  -0.002 -0.016  0.019   -0.048  0.034 -0.016   -0.102  0.115  0.025

 Mode:                28                     29                     30
 Frequency:      1403.72                1426.09                1492.50
 Force Cnst:      1.4582                 1.5179                 1.3907
 Red. Mass:       1.2561                 1.2668                 1.0596
 IR Active:          YES                    YES                    YES
 IR Intens:        8.742                  8.737                  8.412
 Raman Active:       YES                    YES                    YES
               X      Y      Z        X      Y      Z        X      Y      Z
 C          0.006  0.025  0.030   -0.002  0.000  0.015   -0.007  0.002  0.002
 C         -0.067 -0.058 -0.031    0.014  0.039  0.015    0.023 -0.002 -0.013
 C          0.032  0.017  0.023   -0.055 -0.127 -0.039    0.034 -0.020 -0.013
 C          0.015 -0.011 -0.024    0.003 -0.001 -0.008   -0.000 -0.001  0.001
 C          0.012 -0.040  0.077   -0.000 -0.010  0.017    0.007 -0.001 -0.001
 C          0.041  0.013  0.003    0.009 -0.011  0.011    0.026  0.013 -0.036
 H          0.050  0.021 -0.008    0.059  0.004 -0.081    0.014  0.003 -0.012
 H         -0.033 -0.116 -0.165   -0.005 -0.077 -0.045    0.003 -0.017  0.019
 H          0.222  0.246  0.102   -0.066 -0.091 -0.074   -0.034  0.000  0.021
 H          0.024 -0.015 -0.045   -0.044  0.512  0.163    0.029 -0.304 -0.003
 H         -0.085  0.010 -0.005    0.283  0.432 -0.097   -0.268  0.384 -0.197
 H         -0.080 -0.077 -0.017    0.313  0.374  0.279   -0.320  0.176  0.406
 H         -0.053  0.590 -0.341   -0.017  0.133 -0.076    0.001  0.021  0.002
 H         -0.485 -0.064 -0.224   -0.112 -0.016 -0.057   -0.020  0.001 -0.001
 H          0.042 -0.007 -0.100   -0.058 -0.009 -0.093   -0.209  0.159  0.320
 H         -0.074  0.050 -0.113    0.019  0.055 -0.048   -0.186 -0.332  0.162
 TransDip  -0.083  0.042 -0.017    0.016  0.093 -0.001   -0.085  0.008  0.037

 Mode:                31                     32                     33
 Frequency:      1498.42                1509.35                2945.42
 Force Cnst:      1.4236                 1.4178                 5.4800
 Red. Mass:       1.0762                 1.0563                 1.0721
 IR Active:          YES                    YES                    YES
 IR Intens:        0.388                  9.246                 11.808
 Raman Active:       YES                    YES                    YES
               X      Y      Z        X      Y      Z        X      Y      Z
 C          0.003  0.000  0.000   -0.000  0.004  0.011    0.004 -0.075 -0.011
 C         -0.019  0.005  0.016   -0.022 -0.003 -0.027   -0.002  0.002 -0.001
 C         -0.018 -0.006  0.032   -0.021  0.013 -0.032    0.000  0.000 -0.000
 C         -0.001 -0.001 -0.001   -0.002  0.002 -0.001    0.002 -0.004  0.000
 C          0.005 -0.002  0.005    0.002  0.000  0.000    0.001 -0.005  0.002
 C          0.041  0.014 -0.048    0.029  0.009 -0.022   -0.001 -0.000 -0.000
 H          0.007  0.001 -0.010    0.035  0.004 -0.019    0.055  0.982  0.066
 H          0.000 -0.015 -0.019   -0.008 -0.046 -0.038   -0.109 -0.047  0.044
 H          0.034 -0.007 -0.031    0.043  0.097  0.027    0.019 -0.025  0.023
 H         -0.048  0.299 -0.351    0.035  0.039  0.588    0.002 -0.000  0.000
 H         -0.087 -0.260  0.072    0.559 -0.031  0.141   -0.002  0.001  0.006
 H          0.435  0.015 -0.224   -0.219 -0.244 -0.172   -0.002  0.003 -0.003
 H          0.005  0.039 -0.026    0.008 -0.005 -0.003   -0.013 -0.006 -0.004
 H         -0.032 -0.004 -0.018    0.012  0.002  0.004   -0.003  0.071 -0.006
 H         -0.253  0.190  0.362   -0.153  0.113  0.206    0.003  0.004 -0.002
 H         -0.186 -0.386  0.193   -0.139 -0.227  0.095    0.003 -0.002 -0.002
 TransDip  -0.014 -0.005 -0.013    0.022 -0.052  0.079   -0.065  0.012 -0.088

 Mode:                34                     35                     36
 Frequency:      2966.14                3052.42                3065.72
 Force Cnst:      5.5609                 5.6916                 5.8982
 Red. Mass:       1.0728                 1.0368                 1.0651
 IR Active:          YES                    YES                    YES
 IR Intens:        8.734                 23.118                 20.409
 Raman Active:       YES                    YES                    YES
               X      Y      Z        X      Y      Z        X      Y      Z
 C         -0.000  0.006  0.000    0.001  0.001  0.000   -0.001  0.001  0.000
 C         -0.000 -0.000  0.001   -0.000  0.002 -0.001   -0.009  0.017 -0.017
 C         -0.000  0.001 -0.001   -0.013 -0.049 -0.003    0.004  0.002  0.003
 C          0.001 -0.003 -0.000    0.000 -0.000 -0.000    0.000  0.000  0.000
 C          0.009 -0.075  0.013    0.000 -0.001  0.000    0.007  0.001  0.002
 C         -0.000  0.004  0.000   -0.003 -0.002  0.003   -0.037 -0.039  0.040
 H         -0.007 -0.072 -0.006   -0.001 -0.011 -0.002   -0.002 -0.018 -0.001
 H          0.001  0.001 -0.002   -0.010 -0.003  0.002    0.010  0.003 -0.004
 H         -0.002  0.005 -0.005    0.006 -0.014  0.012    0.118 -0.204  0.204
 H         -0.009  0.001 -0.000    0.530  0.001 -0.042   -0.066 -0.001  0.006
 H          0.000 -0.001 -0.004   -0.130  0.127  0.490    0.015 -0.014 -0.051
 H          0.008 -0.016  0.014   -0.251  0.447 -0.416    0.005 -0.008  0.007
 H         -0.099 -0.054 -0.039   -0.005 -0.002 -0.002   -0.081 -0.026 -0.024
 H         -0.007  0.981 -0.102    0.001  0.021 -0.002    0.003  0.010 -0.002
 H         -0.012 -0.035  0.007    0.014  0.050 -0.010    0.241  0.763 -0.160
 H          0.015 -0.015 -0.016    0.016 -0.028 -0.028    0.186 -0.299 -0.304
 TransDip  -0.042  0.020  0.082   -0.062 -0.139 -0.023   -0.112 -0.043  0.081

 Mode:                37                     38                     39
 Frequency:      3087.58                3112.96                3118.47
 Force Cnst:      6.0937                 6.2126                 6.3088
 Red. Mass:       1.0849                 1.0881                 1.1011
 IR Active:          YES                    YES                    YES
 IR Intens:       26.043                 16.519                 16.549
 Raman Active:       YES                    YES                    YES
               X      Y      Z        X      Y      Z        X      Y      Z
 C         -0.005 -0.005  0.001   -0.074 -0.025  0.027   -0.016 -0.005  0.006
 C          0.030 -0.050  0.049   -0.002  0.002 -0.004   -0.001 -0.001 -0.001
 C         -0.013  0.009 -0.019    0.008 -0.003  0.001   -0.014  0.004 -0.000
 C          0.000 -0.000 -0.000    0.000 -0.001  0.001    0.000 -0.000  0.001
 C          0.005  0.003  0.001   -0.011 -0.005 -0.004    0.020  0.005  0.008
 C         -0.014 -0.008  0.016   -0.002  0.013  0.005    0.018 -0.075 -0.039
 H         -0.000  0.041  0.005   -0.011  0.105  0.011   -0.004  0.020  0.003
 H          0.065  0.016 -0.021    0.879  0.215 -0.322    0.185  0.045 -0.068
 H         -0.350  0.591 -0.581    0.020 -0.033  0.037   -0.003  0.006 -0.005
 H          0.122  0.002 -0.016   -0.070 -0.000  0.008    0.136  0.005 -0.010
 H         -0.037  0.033  0.115   -0.002  0.005  0.016    0.006 -0.005 -0.027
 H          0.074 -0.136  0.124   -0.021  0.040 -0.036    0.024 -0.045  0.043
 H         -0.062 -0.020 -0.020    0.140  0.045  0.049   -0.232 -0.074 -0.082
 H          0.001 -0.010  0.000   -0.003  0.016 -0.003    0.004  0.013 -0.002
 H          0.073  0.223 -0.046   -0.028 -0.082  0.019    0.138  0.402 -0.098
 H          0.087 -0.134 -0.139    0.052 -0.076 -0.084   -0.342  0.500  0.550
 TransDip   0.004 -0.109  0.122   -0.123  0.030  0.030    0.010 -0.109 -0.071

 Mode:                40                     41                     42
 Frequency:      3122.69                3125.02                3133.20
 Force Cnst:      6.2712                 6.3194                 6.3768
 Red. Mass:       1.0916                 1.0983                 1.1025
 IR Active:          YES                    YES                    YES
 IR Intens:       31.910                 23.725                 28.593
 Raman Active:       YES                    YES                    YES
               X      Y      Z        X      Y      Z        X      Y      Z
 C          0.006  0.001 -0.002   -0.006 -0.001  0.003    0.003  0.001 -0.001
 C         -0.003  0.005 -0.005   -0.010  0.015 -0.015   -0.000  0.002 -0.003
 C         -0.033  0.016 -0.027   -0.049  0.026 -0.050    0.061 -0.009 -0.069
 C          0.000 -0.000 -0.001   -0.000  0.000  0.001    0.000 -0.000  0.000
 C         -0.063 -0.026 -0.022    0.033  0.015  0.011   -0.000  0.000 -0.000
 C          0.001 -0.018 -0.003   -0.000  0.023  0.005    0.002 -0.009 -0.005
 H          0.001 -0.007  0.000   -0.001 -0.002 -0.001   -0.001 -0.008 -0.001
 H         -0.062 -0.014  0.022    0.076  0.018 -0.029   -0.032 -0.006  0.013
 H          0.033 -0.058  0.055    0.102 -0.176  0.171    0.013 -0.024  0.024
 H          0.302  0.009 -0.031    0.455  0.015 -0.049   -0.605 -0.012  0.036
 H         -0.043  0.042  0.133   -0.084  0.084  0.271   -0.181  0.201  0.722
 H          0.132 -0.248  0.225    0.218 -0.413  0.372    0.059 -0.085  0.063
 H          0.752  0.238  0.264   -0.397 -0.126 -0.139    0.005  0.001  0.002
 H         -0.016  0.088 -0.013    0.009 -0.064  0.009   -0.000 -0.001 -0.000
 H          0.046  0.140 -0.035   -0.060 -0.178  0.042    0.014  0.042 -0.009
 H         -0.050  0.072  0.077    0.069 -0.099 -0.110   -0.046  0.063  0.069
 TransDip  -0.148  0.000 -0.104   -0.077  0.095 -0.097    0.104 -0.028 -0.133

 STANDARD THERMODYNAMIC QUANTITIES AT   298.15 K  AND     1.00 ATM

   This Molecule has  0 Imaginary Frequencies
   Zero point vibrational energy:       89.266 kcal/mol

   Atom    1 Element C  Has Mass   12.00000
   Atom    2 Element C  Has Mass   12.00000
   Atom    3 Element C  Has Mass   12.00000
   Atom    4 Element C  Has Mass   12.00000
   Atom    5 Element C  Has Mass   12.00000
   Atom    6 Element C  Has Mass   12.00000
   Atom    7 Element H  Has Mass    1.00783
   Atom    8 Element H  Has Mass    1.00783
   Atom    9 Element H  Has Mass    1.00783
   Atom   10 Element H  Has Mass    1.00783
   Atom   11 Element H  Has Mass    1.00783
   Atom   12 Element H  Has Mass    1.00783
   Atom   13 Element H  Has Mass    1.00783
   Atom   14 Element H  Has Mass    1.00783
   Atom   15 Element H  Has Mass    1.00783
   Atom   16 Element H  Has Mass    1.00783
   Molecular Mass:    82.078300 amu
   Principal axes and moments of inertia in amu*Bohr^2:
                             1           2           3
    Eigenvalues --      325.31541   510.46294   639.96859
          X               0.61486     0.78560    -0.06913
          Y               0.33252    -0.17876     0.92600
          Z               0.71511    -0.59234    -0.37114
   Rotational Symmetry Number is   1
   The Molecule is an Asymmetric Top
   Translational Enthalpy:        0.889 kcal/mol
   Rotational Enthalpy:           0.889 kcal/mol
   Vibrational Enthalpy:         91.404 kcal/mol
   gas constant (RT):             0.592 kcal/mol
   Translational Entropy:        39.129  cal/mol.K
   Rotational Entropy:           26.166  cal/mol.K
   Vibrational Entropy:          11.303  cal/mol.K

   Total Enthalpy:               93.774 kcal/mol
   Total Entropy:                76.598  cal/mol.K
Archival summary:
1\1\nid00470\FREQ\ProcedureUnspecified\BasisUnspecified\610\cgrambow\FriFeb1504:41:462019FriFeb1504:41:462019\0\\#,FREQ,ProcedureUnspecified,BasisUnspecified,\\0,1\C\H,1,1.0926\C,1,1.52614,2,108.581\H,3,1.09175,1,111.107,2,-59.2561,0\H,3,1.09215,1,110.996,2,60.6945,0\H,3,1.0936,1,111.675,2,-179.625,0\C,1,1.53495,2,111.105,3,-124.915,0\H,7,1.09157,1,113.061,2,88.8484,0\H,7,1.0935,1,110.38,2,-31.3614,0\C,7,1.53741,1,103.102,2,-148.3,0\H,10,1.09096,7,116.994,1,159.695,0\H,10,1.10798,7,110.669,1,-81.1353,0\C,10,1.47907,7,110.674,1,25.8781,0\C,13,1.47635,10,103.577,7,-9.13071,0\H,14,1.09174,13,115.443,10,-148.174,0\H,14,1.11093,13,95.8392,10,102.349,0\\\@

 Total job time:  2967.28s(wall), 11545.26s(cpu) 
 Fri Feb 15 04:41:46 2019

        *************************************************************
        *                                                           *
        *  Thank you very much for using Q-Chem.  Have a nice day.  *
        *                                                           *
        *************************************************************


