You are running Q-Chem version: 5.1.0

#
# job setting
#
local host:  nid00496
current dir: /global/cscratch1/sd/cgrambow/ard_gsm/reac/max6heavy_high
input file:  molopt485.in
output file: 
nprocs     : 1
nthreads   : 16
#
# qchem installation setting
#
QC:          /global/common/cori/software/qchem/5.1
QCAUX:       /global/common/cori/software/qchem/5.1/qcaux
QCPROG:      /global/common/cori/software/qchem/5.1/exe/qcprog.exe
QCPROG_S:    /global/common/cori/software/qchem/5.1/exe/qcprog.exe
PARALLEL:    FALSE
QCMPI:       seq
#
# qchem directory setting
#
qcrun:       qchem30744
QCSCRATCH:   /global/cscratch1/sd/cgrambow
QCLOCALSCR:  /tmp
QCTMPDIR:    /tmp
QCFILEPREF:  /tmp/qchem30744
QCSAVEDIR:   
workdirs:    /tmp/qchem30744
workdir0:    /tmp/qchem30744
partmpdirs =  
#
# parallel setting
#
 invalid QCMPI (seq) option 
QCRSH:           ssh
QCMPI:           seq
QCMPIRUN:        
QCMACHINEFILE:   nid00496
QCMACHINEFILE nid00496 cannot be found

#
# env setting
#
exported envs:   QC QCAUX QCSCRATCH QCRUNNAME QCFILEPREF QCPROG QCPROG_S GUIFILE

Running Job 1 of 2 molopt485.in
qchem molopt485.in_30744.0 /tmp/qchem30744/ 1
/global/common/cori/software/qchem/5.1/exe/qcprog.exe molopt485.in_30744.0 /tmp/qchem30744/
Check license passed

                  Welcome to Q-Chem
     A Quantum Leap Into The Future Of Chemistry


 Q-Chem 5.1, Q-Chem, Inc., Pleasanton, CA (2018)

 Yihan Shao,  Zhengting Gan,  E. Epifanovsky,  A. T. B. Gilbert,  M. Wormit,  
 J. Kussmann,  A. W. Lange,  A. Behn,  Jia Deng,  Xintian Feng,  D. Ghosh,  
 M. Goldey,  P. R. Horn,  L. D. Jacobson,  I. Kaliman,  T. Kus,  A. Landau,  
 Jie Liu,  E. I. Proynov,  R. M. Richard,  R. P. Steele,  E. J. Sundstrom,  
 H. L. Woodcock III,  P. M. Zimmerman,  D. Zuev,  B. Albrecht,  E. Alguire,  
 S. A. Baeppler,  D. Barton,  Z. Benda,  Y. A. Bernard,  E. J. Berquist,  
 K. B. Bravaya,  H. Burton,  D. Casanova,  Chun-Min Chang,  Yunqing Chen,  
 A. Chien,  K. D. Closser,  M. P. Coons,  S. Coriani,  S. Dasgupta,  
 A. L. Dempwolff,  M. Diedenhofen,  Hainam Do,  R. G. Edgar,  Po-Tung Fang,  
 S. Faraji,  S. Fatehi,  Qingguo Feng,  K. D. Fenk,  J. Fosso-Tande,  
 Qinghui Ge,  A. Ghysels,  G. Gidofalvi,  J. Gomes,  J. Gonthier,  A. Gunina,  
 D. Hait,  M. W. D. Hanson-Heine,  P. H. P. Harbach,  A. W. Hauser,  
 J. E. Herr,  E. G. Hohenstein,  Z. C. Holden,  Kerwin Hui,  B. C. Huynh,  
 T.-C. Jagau,  Hyunjun Ji,  B. Kaduk,  K. Khistyaev,  Jaehoon Kim,  
 P. Klunzinger,  K. Koh,  D. Kosenkov,  L. Koulias,  T. Kowalczyk,  
 C. M. Krauter,  A. Kunitsa,  Ka Un Lao,  A. Laurent,  K. V. Lawler,  
 Joonho Lee,  D. Lefrancois,  S. Lehtola,  D. S. Levine,  Yi-Pei Li,  
 You-Sheng Lin,  Fenglai Liu,  E. Livshits,  A. Luenser,  P. Manohar,  
 E. Mansoor,  S. F. Manzer,  Shan-Ping Mao,  Yuezhi Mao,  N. Mardirossian,  
 A. V. Marenich,  T. Markovich,  L. A. Martinez-Martinez,  S. A. Maurer,  
 N. J. Mayhall,  S. C. McKenzie,  J.-M. Mewes,  A. F. Morrison,  
 J. W. Mullinax,  K. Nanda,  T. S. Nguyen-Beck,  R. Olivares-Amaya,  
 J. A. Parkhill,  T. M. Perrine,  F. Plasser,  P. Pokhilko,  S. Prager,  
 A. Prociuk,  E. Ramos,  D. R. Rehn,  F. Rob,  M. Schneider,  N. Sergueev,  
 S. M. Sharada,  S. Sharma,  D. W. Small,  T. Stauch,  T. Stein,  
 Yu-Chuan Su,  A. J. W. Thom,  A. Tkatchenko,  T. Tsuchimochi,  N. M. Tubman,  
 L. Vogt,  M. L. Vidal,  O. Vydrov,  M. A. Watson,  J. Wenzel,  
 M. de Wergifosse,  T. A. Wesolowski,  A. White,  J. Witte,  A. Yamada,  
 Jun Yang,  K. Yao,  S. Yeganeh,  S. R. Yost,  Zhi-Qiang You,  A. Zech,  
 Igor Ying Zhang,  Xing Zhang,  Yan Zhao,  Ying Zhu,  B. R. Brooks,  
 G. K. L. Chan,  C. J. Cramer,  M. S. Gordon,  W. J. Hehre,  A. Klamt,  
 M. W. Schmidt,  C. D. Sherrill,  D. G. Truhlar,  A. Aspuru-Guzik,  R. Baer,  
 A. T. Bell,  N. A. Besley,  Jeng-Da Chai,  R. A. DiStasio Jr.,  A. Dreuw,  
 B. D. Dunietz,  T. R. Furlani,  Chao-Ping Hsu,  Yousung Jung,  Jing Kong,  
 D. S. Lambrecht,  WanZhen Liang,  C. Ochsenfeld,  V. A. Rassolov,  
 L. V. Slipchenko,  J. E. Subotnik,  T. Van Voorhis,  J. M. Herbert,  
 A. I. Krylov,  P. M. W. Gill,  M. Head-Gordon

 Contributors to earlier versions of Q-Chem not listed above: 
 R. D. Adamson,  B. Austin,  J. Baker,  G. J. O. Beran,  K. Brandhorst,  
 S. T. Brown,  E. F. C. Byrd,  A. K. Chakraborty,  C.-L. Cheng,  
 Siu Hung Chien,  D. M. Chipman,  D. L. Crittenden,  H. Dachsel,  
 R. J. Doerksen,  A. D. Dutoi,  L. Fusti-Molnar,  W. A. Goddard III,  
 A. Golubeva-Zadorozhnaya,  S. R. Gwaltney,  G. Hawkins,  A. Heyden,  
 S. Hirata,  G. Kedziora,  F. J. Keil,  C. Kelley,  Jihan Kim,  R. A. King,  
 R. Z. Khaliullin,  P. P. Korambath,  W. Kurlancheek,  A. M. Lee,  M. S. Lee,  
 S. V. Levchenko,  Ching Yeh Lin,  D. Liotard,  R. C. Lochan,  I. Lotan,  
 P. E. Maslen,  N. Nair,  D. P. O'Neill,  D. Neuhauser,  E. Neuscamman,  
 C. M. Oana,  R. Olson,  B. Peters,  R. Peverati,  P. A. Pieniazek,  
 Y. M. Rhee,  J. Ritchie,  M. A. Rohrdanz,  E. Rosta,  N. J. Russ,  
 H. F. Schaefer III,  N. E. Schultz,  N. Shenvi,  A. C. Simmonett,  A. Sodt,  
 D. Stuck,  K. S. Thanthiriwatte,  V. Vanovschi,  Tao Wang,  A. Warshel,  
 C. F. Williams,  Q. Wu,  X. Xu,  W. Zhang

 Please cite Q-Chem as follows:
 Y. Shao et al., Mol. Phys. 113, 184-215 (2015)
 DOI: 10.1080/00268976.2014.952696

 Q-Chem 5.1.0 for Intel X86 EM64T Linux

 Parts of Q-Chem use Armadillo 8.300.2 (Tropical Shenanigans).
 http://arma.sourceforge.net/

 Q-Chem begins on Mon Feb 11 15:06:13 2019  

Host: cori10
0

     Scratch files written to /tmp/qchem30744//
 Jun2518 |scratch|qcdevops|jenkins|workspace|build_RNUM -1
Processing $rem in /global/common/cori/software/qchem/5.1/config/preferences.
 MEM_TOTAL  96000 

Checking the input file for inconsistencies... 	...done.

--------------------------------------------------------------
User input:
--------------------------------------------------------------
$molecule
0 1
C   0.9241399818  -0.7610788543  -0.6901338515
C   0.4795892290  -0.5919395421   0.7943983991
C   0.8335161058   0.9159894569   0.6137570709
C   0.2987842019   0.6600648700  -0.8275424397
C  -1.1977039154   0.3790451382  -0.5691105224
C  -1.0598082359  -0.5776956885   0.6675263339
H   0.4778130676  -1.5806069026  -1.2728059039
H   2.0152812921  -0.7562146824  -0.8083483975
H   0.9128371427  -1.1958581203   1.6002487451
H   1.9150809020   1.1018901185   0.6358643928
H   0.3044657379   1.6498358119   1.2396770927
H   0.5486427496   1.3247715282  -1.6629203074
H  -1.6819475971  -0.1068681244  -1.4272246960
H  -1.7562429866   1.2954023995  -0.3338713223
H  -1.4676647708  -1.5790772150   0.4731291471
H  -1.5467829043  -0.1776601934   1.5673562592
$end

$rem
JOBTYPE                   OPT
METHOD                    wB97X-D3
BASIS                     def2-TZVP
UNRESTRICTED              TRUE
SCF_ALGORITHM             DIIS
MAX_SCF_CYCLES            100
SCF_CONVERGENCE           8
SYM_IGNORE                TRUE
SYMMETRY                  FALSE
GEOM_OPT_MAX_CYCLES       100
GEOM_OPT_TOL_GRADIENT     100
GEOM_OPT_TOL_DISPLACEMENT 400
GEOM_OPT_TOL_ENERGY       33
WAVEFUNCTION_ANALYSIS     FALSE
$end

--------------------------------------------------------------
 Adding empirical dispersion correction 
 ----------------------------------------------------------------
 Doing -D3(0) with
 s6  =   1.00000
 s8  =   1.00000
 rs6 =   1.28100
 rs8 =   1.09400
 -D3 energy without 3body term =     -0.0040292704 hartrees
 ----------------------------------------------------------------
             Standard Nuclear Orientation (Angstroms)
    I     Atom           X                Y                Z
 ----------------------------------------------------------------
    1      C       0.9241399818    -0.7610788543    -0.6901338515
    2      C       0.4795892290    -0.5919395421     0.7943983991
    3      C       0.8335161058     0.9159894569     0.6137570709
    4      C       0.2987842019     0.6600648700    -0.8275424397
    5      C      -1.1977039154     0.3790451382    -0.5691105224
    6      C      -1.0598082359    -0.5776956885     0.6675263339
    7      H       0.4778130676    -1.5806069026    -1.2728059039
    8      H       2.0152812921    -0.7562146824    -0.8083483975
    9      H       0.9128371427    -1.1958581203     1.6002487451
   10      H       1.9150809020     1.1018901185     0.6358643928
   11      H       0.3044657379     1.6498358119     1.2396770927
   12      H       0.5486427496     1.3247715282    -1.6629203074
   13      H      -1.6819475971    -0.1068681244    -1.4272246960
   14      H      -1.7562429866     1.2954023995    -0.3338713223
   15      H      -1.4676647708    -1.5790772150     0.4731291471
   16      H      -1.5467829043    -0.1776601934     1.5673562592
 ----------------------------------------------------------------
 Nuclear Repulsion Energy =   248.6913589041 hartrees
 There are       23 alpha and       23 beta electrons
 Requested basis set is def2-TZVP
 There are 106 shells and 246 basis functions

 Total QAlloc Memory Limit  96000 MB
 Mega-Array Size       188 MB
 MEM_STATIC part       192 MB
 A cutoff of  1.0D-11 yielded   5521 shell pairs
 There are     30439 function pairs (     38488 Cartesian)
 
 -------------------------------------------------------
 OpenMP Integral Computing Module                       
 Release: version 1.0, May 2013, Q-Chem Inc. Pittsburgh 
 -------------------------------------------------------
 Integral Job Info:
 Integral job number is                      11
 Integral operator is                         1
 short-range coefficients              19572800
 long-range coefficients              100000000
 Omega coefficients                         250
 if combine SR and LR in K                    1
 Integral screening is                        0
 Integral computing path is                   2
 max size of driver memory is            800000
 size of driver memory is                776718
 size of scratch memory is              4473992
 max col of scratch BK array              10000
 max len of scratch array in speh3          662
 max len of scratch index in speh4           32
 max int batch size is                      520
 min int batch size is                       52
 fixed nKL is                                52
 max L of basis functions is                  3
 order of int derivative is                   0
 number of shells is                        106
 number of basis is                         276
 number of cartesian basis is               276
 number of contracted shell pairs          5521
 number of primitive shell pairs          12772
 maxK2 (contraction) of shell pair           36
 max number of K2 of shell pair               1
 max number of CS2 of shell pair            877
 max number of PS2 of shell pair           1644
 mem total for path MDJ                  587568
 -------------------------------------------------------
 Smallest overlap matrix eigenvalue = 4.78E-05

 Scale SEOQF with 1.000000e-01/1.000000e-01/1.000000e-01

 Standard Electronic Orientation quadrupole field applied
 Nucleus-field energy     =     0.0000000004 hartrees
 Guess from superposition of atomic densities
 Warning:  Energy on first SCF cycle will be non-variational
 SAD guess density has 46.000000 electrons

 -----------------------------------------------------------------------
  General SCF calculation program by
  Eric Jon Sundstrom, Paul Horn, Yuezhi Mao, Dmitri Zuev, Alec White,
  David Stuck, Shaama M.S., Shane Yost, Joonho Lee, David Small,
  Daniel Levine, Susi Lehtola, Hugh Burton, Evgeny Epifanovsky
 -----------------------------------------------------------------------
 Exchange:     0.1957 Hartree-Fock + 1.0000 wB97X-D3 + LR-HF
 Correlation:  1.0000 wB97X-D3
 Using SG-2 standard quadrature grid
 Dispersion:   Grimme D3
 using 16 threads for integral computing
 -------------------------------------------------------
 OpenMP Integral computing Module                
 Release: version 1.0, May 2013, Q-Chem Inc. Pittsburgh 
 -------------------------------------------------------
 using 16 threads for integral computing
 -------------------------------------------------------
 OpenMP Integral computing Module                
 Release: version 1.0, May 2013, Q-Chem Inc. Pittsburgh 
 -------------------------------------------------------
 -------------------------------------------------------
 OpenMP BLAS3 based DFT computing Module                
 Release: version 1.0, May 2013, Q-Chem Inc. Pittsburgh 
 -------------------------------------------------------
 A unrestricted SCF calculation will be
 performed using DIIS
 SCF converges when DIIS error is below 1.0e-08
 ---------------------------------------
  Cycle       Energy         DIIS error
 ---------------------------------------
    1    -236.6163573799      1.76e-02  
    2    -234.5905720922      1.26e-03  
    3    -234.6082170835      1.09e-03  
    4    -234.6418880487      1.01e-04  
    5    -234.6421958241      3.52e-05  
    6    -234.6422290250      1.12e-05  
    7    -234.6422326326      1.26e-06  
    8    -234.6422327442      2.17e-07  
    9    -234.6422327479      5.66e-08  
   10    -234.6422327481      1.01e-08  
   11    -234.6422327481      3.46e-09  Convergence criterion met
 ---------------------------------------
 SCF time:   CPU 651.53s  wall 42.00s 
<S^2> =         -0.000000000
 SCF   energy in the final basis set =     -234.6422327481
 Total energy in the final basis set =     -234.6422327481
 No wavefunction analysis requested
 Calculating analytic gradient of the SCF energy
 Gradient of SCF Energy
            1           2           3           4           5           6
    1   0.0022084   0.0010957   0.0017056   0.0002000  -0.0030652  -0.0024421
    2  -0.0028536  -0.0030790   0.0031622   0.0031263   0.0015539  -0.0019855
    3  -0.0022593   0.0042207   0.0021396  -0.0040467  -0.0021791   0.0024669
            7           8           9          10          11          12
    1  -0.0020323   0.0049066   0.0019695   0.0048879  -0.0023058   0.0011404
    2  -0.0036499  -0.0001521  -0.0028261   0.0010269   0.0032975   0.0030706
    3  -0.0026790  -0.0006732   0.0036435   0.0001566   0.0028630  -0.0038754
           13          14          15          16
    1  -0.0020696  -0.0023305  -0.0016763  -0.0021924
    2  -0.0022022   0.0040804  -0.0043513   0.0017819
    3  -0.0037680   0.0010746  -0.0009927   0.0039085
 Max gradient component =       4.907E-03
 RMS gradient           =       2.757E-03
 Gradient time:  CPU 182.16 s  wall 12.05 s
 Geometry Optimization Parameters
   NAtoms,    NIC,     NZ,  NCons,   NDum,   NFix, NCnnct, MaxDiis
       16     148       0       0       0       0       0       0


** GEOMETRY OPTIMIZATION IN DELOCALIZED INTERNAL COORDINATES **
   Searching for a Minimum

   Optimization Cycle:   1

                       Coordinates (Angstroms)
     ATOM                X               Y               Z
      1  C         0.9241399818   -0.7610788543   -0.6901338515
      2  C         0.4795892290   -0.5919395421    0.7943983991
      3  C         0.8335161058    0.9159894569    0.6137570709
      4  C         0.2987842019    0.6600648700   -0.8275424397
      5  C        -1.1977039154    0.3790451382   -0.5691105224
      6  C        -1.0598082359   -0.5776956885    0.6675263339
      7  H         0.4778130676   -1.5806069026   -1.2728059039
      8  H         2.0152812921   -0.7562146824   -0.8083483975
      9  H         0.9128371427   -1.1958581203    1.6002487451
     10  H         1.9150809020    1.1018901185    0.6358643928
     11  H         0.3044657379    1.6498358119    1.2396770927
     12  H         0.5486427496    1.3247715282   -1.6629203074
     13  H        -1.6819475971   -0.1068681244   -1.4272246960
     14  H        -1.7562429866    1.2954023995   -0.3338713223
     15  H        -1.4676647708   -1.5790772150    0.4731291471
     16  H        -1.5467829043   -0.1776601934    1.5673562592
   Point Group: c1    Number of degrees of freedom:    42


   Energy is   -234.642232748


 Attempting to Generate Delocalized Internal Coordinates

 42 Hessian modes will be used to form the next step
  Hessian Eigenvalues:
     0.005312    0.017531    0.021012    0.025058    0.025893    0.028729
     0.034182    0.039223    0.039598    0.039980    0.044267    0.044786
     0.053495    0.057145    0.060814    0.061350    0.061579    0.061938
     0.067861    0.068040    0.080049    0.085242    0.097358    0.124362
     0.130490    0.198888    0.224229    0.225106    0.237315    0.257504
     0.266877    0.280791    0.336650    0.336720    0.338328    0.338353
     0.338384    0.338402    0.339436    0.339560    0.340820    0.340976

 Minimum Search - Taking Simple RFO Step
 Searching for Lamda that Minimizes Along All modes
 Value Taken    Lamda =  -0.00194674
 Step Taken.  Stepsize is  0.082500

                             Maximum     Tolerance    Cnvgd?
         Gradient           0.017449      0.000100      NO
         Displacement       0.059491      0.000400      NO
         Energy change     *********      0.000000      NO


 New Cartesian Coordinates Obtained by Inverse Iteration

 Displacement from previous Coordinates is:  0.117804
 Adding empirical dispersion correction 
 ----------------------------------------------------------------
 Doing -D3(0) with
 s6  =   1.00000
 s8  =   1.00000
 rs6 =   1.28100
 rs8 =   1.09400
 -D3 energy without 3body term =     -0.0039940383 hartrees
 ----------------------------------------------------------------
             Standard Nuclear Orientation (Angstroms)
    I     Atom           X                Y                Z
 ----------------------------------------------------------------
    1      C       0.9157984537    -0.7550411531    -0.6857416193
    2      C       0.4762318313    -0.5873032948     0.7866010301
    3      C       0.8255204839     0.9082880467     0.6094568880
    4      C       0.2970615906     0.6547266379    -0.8204714585
    5      C      -1.1866414907     0.3748757552    -0.5641756277
    6      C      -1.0501501517    -0.5717262893     0.6614526988
    7      H       0.4724362118    -1.5688656056    -1.2640706970
    8      H       1.9993761004    -0.7497098768    -0.8025119220
    9      H       0.9063878688    -1.1867700492     1.5869258302
   10      H       1.8995049699     1.0924784729     0.6325976006
   11      H       0.2987586208     1.6361986385     1.2307022869
   12      H       0.5452306274     1.3152628050    -1.6493906616
   13      H      -1.6674036461    -0.1081225546    -1.4162875865
   14      H      -1.7427412540     1.2843528928    -0.3313280256
   15      H      -1.4573422454    -1.5659942883     0.4709288154
   16      H      -1.5320279704    -0.1726501372     1.5553124485
 ----------------------------------------------------------------
 Nuclear Repulsion Energy =   250.7744909448 hartrees
 There are       23 alpha and       23 beta electrons
 Applying Cartesian multipole field
    Component          Value
    ---------          -----
     (2,0,0)        1.00000E-11
     (0,2,0)        2.00000E-11
     (0,0,2)       -3.00000E-11
 Nucleus-field energy     =     0.0000000004 hartrees
 Requested basis set is def2-TZVP
 There are 106 shells and 246 basis functions
 A cutoff of  1.0D-11 yielded   5530 shell pairs
 There are     30466 function pairs (     38515 Cartesian)
 Smallest overlap matrix eigenvalue = 4.37E-05
 Guess MOs from SCF MO coefficient file
 Reading MOs from coefficient file
 Reading MOs from coefficient file

 -----------------------------------------------------------------------
  General SCF calculation program by
  Eric Jon Sundstrom, Paul Horn, Yuezhi Mao, Dmitri Zuev, Alec White,
  David Stuck, Shaama M.S., Shane Yost, Joonho Lee, David Small,
  Daniel Levine, Susi Lehtola, Hugh Burton, Evgeny Epifanovsky
 -----------------------------------------------------------------------
 Exchange:     0.1957 Hartree-Fock + 1.0000 wB97X-D3 + LR-HF
 Correlation:  1.0000 wB97X-D3
 Using SG-2 standard quadrature grid
 Dispersion:   Grimme D3
 using 16 threads for integral computing
 -------------------------------------------------------
 OpenMP Integral computing Module                
 Release: version 1.0, May 2013, Q-Chem Inc. Pittsburgh 
 -------------------------------------------------------
 using 16 threads for integral computing
 -------------------------------------------------------
 OpenMP Integral computing Module                
 Release: version 1.0, May 2013, Q-Chem Inc. Pittsburgh 
 -------------------------------------------------------
 -------------------------------------------------------
 OpenMP BLAS3 based DFT computing Module                
 Release: version 1.0, May 2013, Q-Chem Inc. Pittsburgh 
 -------------------------------------------------------
 A unrestricted SCF calculation will be
 performed using DIIS
 SCF converges when DIIS error is below 1.0e-08
 ---------------------------------------
  Cycle       Energy         DIIS error
 ---------------------------------------
    1    -234.6747381288      1.85e-04  
    2    -234.6431199883      3.35e-05  
    3    -234.6431321151      3.08e-05  
    4    -234.6431580402      1.69e-06  
    5    -234.6431581616      6.12e-07  
    6    -234.6431581735      3.29e-07  
    7    -234.6431581766      2.92e-08  
    8    -234.6431581767      6.47e-09  Convergence criterion met
 ---------------------------------------
 SCF time:   CPU 526.79s  wall 34.00s 
<S^2> =         -0.000000000
 SCF   energy in the final basis set =     -234.6431581767
 Total energy in the final basis set =     -234.6431581767
 No wavefunction analysis requested
 Calculating analytic gradient of the SCF energy
 Gradient of SCF Energy
            1           2           3           4           5           6
    1  -0.0001695  -0.0001731  -0.0002772  -0.0001630   0.0002327   0.0002484
    2  -0.0001080   0.0001128   0.0000585  -0.0001469   0.0000594   0.0000407
    3  -0.0000908  -0.0001619   0.0000815   0.0001987  -0.0002426   0.0002424
            7           8           9          10          11          12
    1  -0.0001771  -0.0001973  -0.0000969  -0.0001620  -0.0001235  -0.0000254
    2   0.0001613   0.0001264   0.0001373  -0.0001953  -0.0001803  -0.0001614
    3   0.0001465   0.0001189  -0.0002008  -0.0000954  -0.0001193   0.0002019
           13          14          15          16
    1   0.0002722   0.0003377   0.0002796   0.0001941
    2  -0.0001585  -0.0001093   0.0001637   0.0001997
    3   0.0001974   0.0002364  -0.0002892  -0.0002236
 Max gradient component =       3.377E-04
 RMS gradient           =       1.818E-04
 Gradient time:  CPU 190.42 s  wall 12.50 s
 Geometry Optimization Parameters
   NAtoms,    NIC,     NZ,  NCons,   NDum,   NFix, NCnnct, MaxDiis
       16     148       0       0       0       0       0       0

 Cartesian Hessian Update
 Hessian Updated using BFGS Update


** GEOMETRY OPTIMIZATION IN DELOCALIZED INTERNAL COORDINATES **
   Searching for a Minimum

   Optimization Cycle:   2

                       Coordinates (Angstroms)
     ATOM                X               Y               Z
      1  C         0.9157984537   -0.7550411531   -0.6857416193
      2  C         0.4762318313   -0.5873032948    0.7866010301
      3  C         0.8255204839    0.9082880467    0.6094568880
      4  C         0.2970615906    0.6547266379   -0.8204714585
      5  C        -1.1866414907    0.3748757552   -0.5641756277
      6  C        -1.0501501517   -0.5717262893    0.6614526988
      7  H         0.4724362118   -1.5688656056   -1.2640706970
      8  H         1.9993761004   -0.7497098768   -0.8025119220
      9  H         0.9063878688   -1.1867700492    1.5869258302
     10  H         1.8995049699    1.0924784729    0.6325976006
     11  H         0.2987586208    1.6361986385    1.2307022869
     12  H         0.5452306274    1.3152628050   -1.6493906616
     13  H        -1.6674036461   -0.1081225546   -1.4162875865
     14  H        -1.7427412540    1.2843528928   -0.3313280256
     15  H        -1.4573422454   -1.5659942883    0.4709288154
     16  H        -1.5320279704   -0.1726501372    1.5553124485
   Point Group: c1    Number of degrees of freedom:    42


   Energy is   -234.643158177

 Hessian Updated using BFGS Update

 42 Hessian modes will be used to form the next step
  Hessian Eigenvalues:
     0.005312    0.017536    0.021012    0.025058    0.025893    0.028729
     0.034180    0.039223    0.039598    0.039979    0.044295    0.044783
     0.053495    0.057061    0.060814    0.061356    0.061578    0.061920
     0.067861    0.068039    0.080048    0.085357    0.097358    0.124361
     0.130489    0.198888    0.224231    0.225106    0.237595    0.257503
     0.268749    0.292149    0.336613    0.336699    0.338337    0.338368
     0.338394    0.338957    0.339491    0.340049    0.340898    0.345127

 Minimum Search - Taking Simple RFO Step
 Searching for Lamda that Minimizes Along All modes
 Value Taken    Lamda =  -0.00001659
 Step Taken.  Stepsize is  0.016313

                             Maximum     Tolerance    Cnvgd?
         Gradient           0.001214      0.000100      NO
         Displacement       0.010014      0.000400      NO
         Energy change     -0.000925      0.000000      NO


 New Cartesian Coordinates Obtained by Inverse Iteration

 Displacement from previous Coordinates is:  0.020954
 Adding empirical dispersion correction 
 ----------------------------------------------------------------
 Doing -D3(0) with
 s6  =   1.00000
 s8  =   1.00000
 rs6 =   1.28100
 rs8 =   1.09400
 -D3 energy without 3body term =     -0.0039988127 hartrees
 ----------------------------------------------------------------
             Standard Nuclear Orientation (Angstroms)
    I     Atom           X                Y                Z
 ----------------------------------------------------------------
    1      C       0.9174733696    -0.7544546285    -0.6855153574
    2      C       0.4757381350    -0.5877735077     0.7868698408
    3      C       0.8272786521     0.9079300598     0.6090670719
    4      C       0.2965226898     0.6550052574    -0.8207648256
    5      C      -1.1884367778     0.3749222523    -0.5642263979
    6      C      -1.0519061204    -0.5721542652     0.6615993709
    7      H       0.4773090679    -1.5693089573    -1.2651134170
    8      H       2.0014286110    -0.7478509618    -0.8011479732
    9      H       0.9056068571    -1.1875392225     1.5875882300
   10      H       1.9016915831     1.0912033201     0.6311673192
   11      H       0.3032410169     1.6372832671     1.2311771458
   12      H       0.5442994080     1.3158491848    -1.6499941404
   13      H      -1.6698508310    -0.1069458442    -1.4169395982
   14      H      -1.7459198476     1.2842643325    -0.3328721155
   15      H      -1.4605822352    -1.5664613068     0.4730033826
   16      H      -1.5338935780    -0.1739689798     1.5561014642
 ----------------------------------------------------------------
 Nuclear Repulsion Energy =   250.6314387168 hartrees
 There are       23 alpha and       23 beta electrons
 Applying Cartesian multipole field
    Component          Value
    ---------          -----
     (2,0,0)        1.00000E-11
     (0,2,0)        2.00000E-11
     (0,0,2)       -3.00000E-11
 Nucleus-field energy     =     0.0000000004 hartrees
 Requested basis set is def2-TZVP
 There are 106 shells and 246 basis functions
 A cutoff of  1.0D-11 yielded   5529 shell pairs
 There are     30463 function pairs (     38512 Cartesian)
 Smallest overlap matrix eigenvalue = 4.41E-05
 Guess MOs from SCF MO coefficient file
 Reading MOs from coefficient file
 Reading MOs from coefficient file

 -----------------------------------------------------------------------
  General SCF calculation program by
  Eric Jon Sundstrom, Paul Horn, Yuezhi Mao, Dmitri Zuev, Alec White,
  David Stuck, Shaama M.S., Shane Yost, Joonho Lee, David Small,
  Daniel Levine, Susi Lehtola, Hugh Burton, Evgeny Epifanovsky
 -----------------------------------------------------------------------
 Exchange:     0.1957 Hartree-Fock + 1.0000 wB97X-D3 + LR-HF
 Correlation:  1.0000 wB97X-D3
 Using SG-2 standard quadrature grid
 Dispersion:   Grimme D3
 using 16 threads for integral computing
 -------------------------------------------------------
 OpenMP Integral computing Module                
 Release: version 1.0, May 2013, Q-Chem Inc. Pittsburgh 
 -------------------------------------------------------
 using 16 threads for integral computing
 -------------------------------------------------------
 OpenMP Integral computing Module                
 Release: version 1.0, May 2013, Q-Chem Inc. Pittsburgh 
 -------------------------------------------------------
 -------------------------------------------------------
 OpenMP BLAS3 based DFT computing Module                
 Release: version 1.0, May 2013, Q-Chem Inc. Pittsburgh 
 -------------------------------------------------------
 A unrestricted SCF calculation will be
 performed using DIIS
 SCF converges when DIIS error is below 1.0e-08
 ---------------------------------------
  Cycle       Energy         DIIS error
 ---------------------------------------
    1    -234.6420014593      2.12e-05  
    2    -234.6431653001      2.47e-06  
    3    -234.6431655635      1.06e-06  
    4    -234.6431655957      4.32e-07  
    5    -234.6431656021      1.39e-07  
    6    -234.6431656028      2.23e-08  
    7    -234.6431656029      7.64e-09  Convergence criterion met
 ---------------------------------------
 SCF time:   CPU 441.88s  wall 29.00s 
<S^2> =         -0.000000000
 SCF   energy in the final basis set =     -234.6431656029
 Total energy in the final basis set =     -234.6431656029
 No wavefunction analysis requested
 Calculating analytic gradient of the SCF energy
 Gradient of SCF Energy
            1           2           3           4           5           6
    1   0.0003459  -0.0001747   0.0003263  -0.0001695  -0.0001875  -0.0001615
    2   0.0000839  -0.0000192  -0.0000249  -0.0000134   0.0001289  -0.0001444
    3   0.0000201   0.0000264  -0.0000542   0.0000003  -0.0002117   0.0002239
            7           8           9          10          11          12
    1  -0.0000482  -0.0000108  -0.0000163   0.0000042  -0.0000202   0.0000110
    2   0.0000727   0.0000039   0.0000145  -0.0000255  -0.0000832  -0.0000214
    3   0.0000662   0.0000268  -0.0000216  -0.0000168  -0.0000569   0.0000258
           13          14          15          16
    1   0.0000290   0.0000437   0.0000158   0.0000128
    2  -0.0000169  -0.0000344   0.0000497   0.0000295
    3   0.0000678   0.0000515  -0.0000675  -0.0000801
 Max gradient component =       3.459E-04
 RMS gradient           =       1.065E-04
 Gradient time:  CPU 183.34 s  wall 12.02 s
 Geometry Optimization Parameters
   NAtoms,    NIC,     NZ,  NCons,   NDum,   NFix, NCnnct, MaxDiis
       16     148       0       0       0       0       0       0

 Cartesian Hessian Update
 Hessian Updated using BFGS Update


** GEOMETRY OPTIMIZATION IN DELOCALIZED INTERNAL COORDINATES **
   Searching for a Minimum

   Optimization Cycle:   3

                       Coordinates (Angstroms)
     ATOM                X               Y               Z
      1  C         0.9174733696   -0.7544546285   -0.6855153574
      2  C         0.4757381350   -0.5877735077    0.7868698408
      3  C         0.8272786521    0.9079300598    0.6090670719
      4  C         0.2965226898    0.6550052574   -0.8207648256
      5  C        -1.1884367778    0.3749222523   -0.5642263979
      6  C        -1.0519061204   -0.5721542652    0.6615993709
      7  H         0.4773090679   -1.5693089573   -1.2651134170
      8  H         2.0014286110   -0.7478509618   -0.8011479732
      9  H         0.9056068571   -1.1875392225    1.5875882300
     10  H         1.9016915831    1.0912033201    0.6311673192
     11  H         0.3032410169    1.6372832671    1.2311771458
     12  H         0.5442994080    1.3158491848   -1.6499941404
     13  H        -1.6698508310   -0.1069458442   -1.4169395982
     14  H        -1.7459198476    1.2842643325   -0.3328721155
     15  H        -1.4605822352   -1.5664613068    0.4730033826
     16  H        -1.5338935780   -0.1739689798    1.5561014642
   Point Group: c1    Number of degrees of freedom:    42


   Energy is   -234.643165603

 Hessian Updated using BFGS Update

 42 Hessian modes will be used to form the next step
  Hessian Eigenvalues:
     0.005282    0.018994    0.021001    0.025035    0.025893    0.028723
     0.034156    0.039223    0.039593    0.039798    0.044745    0.046495
     0.049000    0.053496    0.060813    0.061128    0.061579    0.062449
     0.067861    0.068034    0.080038    0.094568    0.097358    0.123457
     0.130489    0.198888    0.224229    0.225106    0.240203    0.257500
     0.266809    0.311656    0.331384    0.336683    0.337736    0.338345
     0.338373    0.338455    0.339499    0.340205    0.340900    0.342558

 Minimum Search - Taking Simple RFO Step
 Searching for Lamda that Minimizes Along All modes
 Value Taken    Lamda =  -0.00000206
 Step Taken.  Stepsize is  0.006809

                             Maximum     Tolerance    Cnvgd?
         Gradient           0.000285      0.000100      NO
         Displacement       0.002755      0.000400      NO
         Energy change     -0.000007      0.000000      NO


 New Cartesian Coordinates Obtained by Inverse Iteration

 Displacement from previous Coordinates is:  0.007939
 Adding empirical dispersion correction 
 ----------------------------------------------------------------
 Doing -D3(0) with
 s6  =   1.00000
 s8  =   1.00000
 rs6 =   1.28100
 rs8 =   1.09400
 -D3 energy without 3body term =     -0.0039991860 hartrees
 ----------------------------------------------------------------
             Standard Nuclear Orientation (Angstroms)
    I     Atom           X                Y                Z
 ----------------------------------------------------------------
    1      C       0.9168453064    -0.7548750938    -0.6859882515
    2      C       0.4762112438    -0.5879069492     0.7867525234
    3      C       0.8266159490     0.9081890429     0.6095827305
    4      C       0.2969830595     0.6551591504    -0.8207272545
    5      C      -1.1879575529     0.3748392564    -0.5643948266
    6      C      -1.0514309179    -0.5719820455     0.6617333110
    7      H       0.4763245872    -1.5696234195    -1.2657014070
    8      H       2.0007850757    -0.7489882624    -0.8023026345
    9      H       0.9062465571    -1.1877957925     1.5874094515
   10      H       1.9009091684     1.0922946025     0.6324419201
   11      H       0.3020840818     1.6373261714     1.2317590663
   12      H       0.5448962278     1.3161646932    -1.6499008834
   13      H      -1.6690808648    -0.1069587115    -1.4174603789
   14      H      -1.7458791330     1.2842617007    -0.3339547800
   15      H      -1.4605412207    -1.5664074079     0.4741929180
   16      H      -1.5330115671    -0.1736969349     1.5565584956
 ----------------------------------------------------------------
 Nuclear Repulsion Energy =   250.6260062829 hartrees
 There are       23 alpha and       23 beta electrons
 Applying Cartesian multipole field
    Component          Value
    ---------          -----
     (2,0,0)        1.00000E-11
     (0,2,0)        2.00000E-11
     (0,0,2)       -3.00000E-11
 Nucleus-field energy     =     0.0000000004 hartrees
 Requested basis set is def2-TZVP
 There are 106 shells and 246 basis functions
 A cutoff of  1.0D-11 yielded   5530 shell pairs
 There are     30466 function pairs (     38515 Cartesian)
 Smallest overlap matrix eigenvalue = 4.41E-05
 Guess MOs from SCF MO coefficient file
 Reading MOs from coefficient file
 Reading MOs from coefficient file

 -----------------------------------------------------------------------
  General SCF calculation program by
  Eric Jon Sundstrom, Paul Horn, Yuezhi Mao, Dmitri Zuev, Alec White,
  David Stuck, Shaama M.S., Shane Yost, Joonho Lee, David Small,
  Daniel Levine, Susi Lehtola, Hugh Burton, Evgeny Epifanovsky
 -----------------------------------------------------------------------
 Exchange:     0.1957 Hartree-Fock + 1.0000 wB97X-D3 + LR-HF
 Correlation:  1.0000 wB97X-D3
 Using SG-2 standard quadrature grid
 Dispersion:   Grimme D3
 using 16 threads for integral computing
 -------------------------------------------------------
 OpenMP Integral computing Module                
 Release: version 1.0, May 2013, Q-Chem Inc. Pittsburgh 
 -------------------------------------------------------
 using 16 threads for integral computing
 -------------------------------------------------------
 OpenMP Integral computing Module                
 Release: version 1.0, May 2013, Q-Chem Inc. Pittsburgh 
 -------------------------------------------------------
 -------------------------------------------------------
 OpenMP BLAS3 based DFT computing Module                
 Release: version 1.0, May 2013, Q-Chem Inc. Pittsburgh 
 -------------------------------------------------------
 A unrestricted SCF calculation will be
 performed using DIIS
 SCF converges when DIIS error is below 1.0e-08
 ---------------------------------------
  Cycle       Energy         DIIS error
 ---------------------------------------
    1    -234.6429034651      9.71e-06  
    2    -234.6431663187      9.37e-07  
    3    -234.6431663650      4.25e-07  
    4    -234.6431663705      1.95e-07  
    5    -234.6431663719      3.95e-08  
    6    -234.6431663719      1.10e-08  
    7    -234.6431663719      4.29e-09  Convergence criterion met
 ---------------------------------------
 SCF time:   CPU 454.00s  wall 30.00s 
<S^2> =          0.000000000
 SCF   energy in the final basis set =     -234.6431663719
 Total energy in the final basis set =     -234.6431663719
 No wavefunction analysis requested
 Calculating analytic gradient of the SCF energy
 Gradient of SCF Energy
            1           2           3           4           5           6
    1  -0.0000005   0.0000173  -0.0000110   0.0000213  -0.0000145  -0.0000077
    2  -0.0000941  -0.0000298   0.0000855   0.0000280   0.0000471  -0.0000408
    3  -0.0000789   0.0000263   0.0000842  -0.0000245  -0.0001088   0.0001037
            7           8           9          10          11          12
    1  -0.0000126  -0.0000114   0.0000147  -0.0000062  -0.0000055   0.0000295
    2  -0.0000302  -0.0000082  -0.0000203  -0.0000099   0.0000259   0.0000190
    3  -0.0000179   0.0000024   0.0000270   0.0000075   0.0000206  -0.0000237
           13          14          15          16
    1  -0.0000061   0.0000060  -0.0000043  -0.0000089
    2   0.0000196   0.0000217  -0.0000067  -0.0000069
    3  -0.0000143  -0.0000130   0.0000044   0.0000050
 Max gradient component =       1.088E-04
 RMS gradient           =       3.754E-05
 Gradient time:  CPU 191.74 s  wall 12.64 s
 Geometry Optimization Parameters
   NAtoms,    NIC,     NZ,  NCons,   NDum,   NFix, NCnnct, MaxDiis
       16     148       0       0       0       0       0       0

 Cartesian Hessian Update
 Hessian Updated using BFGS Update


** GEOMETRY OPTIMIZATION IN DELOCALIZED INTERNAL COORDINATES **
   Searching for a Minimum

   Optimization Cycle:   4

                       Coordinates (Angstroms)
     ATOM                X               Y               Z
      1  C         0.9168453064   -0.7548750938   -0.6859882515
      2  C         0.4762112438   -0.5879069492    0.7867525234
      3  C         0.8266159490    0.9081890429    0.6095827305
      4  C         0.2969830595    0.6551591504   -0.8207272545
      5  C        -1.1879575529    0.3748392564   -0.5643948266
      6  C        -1.0514309179   -0.5719820455    0.6617333110
      7  H         0.4763245872   -1.5696234195   -1.2657014070
      8  H         2.0007850757   -0.7489882624   -0.8023026345
      9  H         0.9062465571   -1.1877957925    1.5874094515
     10  H         1.9009091684    1.0922946025    0.6324419201
     11  H         0.3020840818    1.6373261714    1.2317590663
     12  H         0.5448962278    1.3161646932   -1.6499008834
     13  H        -1.6690808648   -0.1069587115   -1.4174603789
     14  H        -1.7458791330    1.2842617007   -0.3339547800
     15  H        -1.4605412207   -1.5664074079    0.4741929180
     16  H        -1.5330115671   -0.1736969349    1.5565584956
   Point Group: c1    Number of degrees of freedom:    42


   Energy is   -234.643166372

 Hessian Updated using BFGS Update

 42 Hessian modes will be used to form the next step
  Hessian Eigenvalues:
     0.005259    0.020021    0.020995    0.025010    0.025893    0.028711
     0.034153    0.039136    0.039444    0.039603    0.044750    0.046932
     0.049899    0.053496    0.060814    0.061571    0.061581    0.062405
     0.067861    0.068035    0.080041    0.097356    0.108791    0.123760
     0.130490    0.198884    0.224241    0.225106    0.235980    0.257501
     0.282692    0.300789    0.334795    0.336686    0.338056    0.338345
     0.338375    0.338430    0.339497    0.340890    0.341350    0.345915

 Minimum Search - Taking Simple RFO Step
 Searching for Lamda that Minimizes Along All modes
 Value Taken    Lamda =   0.00000000
 Step Taken.  Stepsize is  0.001632

                             Maximum     Tolerance    Cnvgd?
         Gradient           0.000203      0.000100      NO
         Displacement       0.000995      0.000400      NO
         Energy change     -0.000001      0.000000      NO


 New Cartesian Coordinates Obtained by Inverse Iteration

 Displacement from previous Coordinates is:  0.002074
 Adding empirical dispersion correction 
 ----------------------------------------------------------------
 Doing -D3(0) with
 s6  =   1.00000
 s8  =   1.00000
 rs6 =   1.28100
 rs8 =   1.09400
 -D3 energy without 3body term =     -0.0039989277 hartrees
 ----------------------------------------------------------------
             Standard Nuclear Orientation (Angstroms)
    I     Atom           X                Y                Z
 ----------------------------------------------------------------
    1      C       0.9169305344    -0.7547182772    -0.6858514875
    2      C       0.4760970145    -0.5878824615     0.7867192747
    3      C       0.8267157984     0.9080471518     0.6094337072
    4      C       0.2968747779     0.6551134813    -0.8206915181
    5      C      -1.1879826220     0.3747872935    -0.5642534564
    6      C      -1.0514756035    -0.5719277645     0.6616017591
    7      H       0.4766389354    -1.5694965366    -1.2656222254
    8      H       2.0008959805    -0.7486506851    -0.8019952952
    9      H       0.9059897719    -1.1877836757     1.5873786187
   10      H       1.9010484862     1.0919820561     0.6321394953
   11      H       0.3023841754     1.6372401380     1.2316468665
   12      H       0.5446396849     1.3160949610    -1.6498660713
   13      H      -1.6690897137    -0.1070758068    -1.4172818652
   14      H      -1.7459500809     1.2841452396    -0.3337333419
   15      H      -1.4606574715    -1.5662958693     0.4739839888
   16      H      -1.5330596677    -0.1735792444     1.5563915506
 ----------------------------------------------------------------
 Nuclear Repulsion Energy =   250.6408614190 hartrees
 There are       23 alpha and       23 beta electrons
 Applying Cartesian multipole field
    Component          Value
    ---------          -----
     (2,0,0)        1.00000E-11
     (0,2,0)        2.00000E-11
     (0,0,2)       -3.00000E-11
 Nucleus-field energy     =     0.0000000004 hartrees
 Requested basis set is def2-TZVP
 There are 106 shells and 246 basis functions
 A cutoff of  1.0D-11 yielded   5530 shell pairs
 There are     30466 function pairs (     38515 Cartesian)
 Smallest overlap matrix eigenvalue = 4.41E-05
 Guess MOs from SCF MO coefficient file
 Reading MOs from coefficient file
 Reading MOs from coefficient file

 -----------------------------------------------------------------------
  General SCF calculation program by
  Eric Jon Sundstrom, Paul Horn, Yuezhi Mao, Dmitri Zuev, Alec White,
  David Stuck, Shaama M.S., Shane Yost, Joonho Lee, David Small,
  Daniel Levine, Susi Lehtola, Hugh Burton, Evgeny Epifanovsky
 -----------------------------------------------------------------------
 Exchange:     0.1957 Hartree-Fock + 1.0000 wB97X-D3 + LR-HF
 Correlation:  1.0000 wB97X-D3
 Using SG-2 standard quadrature grid
 Dispersion:   Grimme D3
 using 16 threads for integral computing
 -------------------------------------------------------
 OpenMP Integral computing Module                
 Release: version 1.0, May 2013, Q-Chem Inc. Pittsburgh 
 -------------------------------------------------------
 using 16 threads for integral computing
 -------------------------------------------------------
 OpenMP Integral computing Module                
 Release: version 1.0, May 2013, Q-Chem Inc. Pittsburgh 
 -------------------------------------------------------
 -------------------------------------------------------
 OpenMP BLAS3 based DFT computing Module                
 Release: version 1.0, May 2013, Q-Chem Inc. Pittsburgh 
 -------------------------------------------------------
 A unrestricted SCF calculation will be
 performed using DIIS
 SCF converges when DIIS error is below 1.0e-08
 ---------------------------------------
  Cycle       Energy         DIIS error
 ---------------------------------------
    1    -234.6432975165      3.11e-06  
    2    -234.6431664958      3.64e-07  
    3    -234.6431664995      2.39e-07  
    4    -234.6431665010      5.63e-08  
    5    -234.6431665012      1.41e-08  
    6    -234.6431665012      3.36e-09  Convergence criterion met
 ---------------------------------------
 SCF time:   CPU 403.53s  wall 26.00s 
<S^2> =          0.000000000
 SCF   energy in the final basis set =     -234.6431665012
 Total energy in the final basis set =     -234.6431665012
 No wavefunction analysis requested
 Calculating analytic gradient of the SCF energy
 Gradient of SCF Energy
            1           2           3           4           5           6
    1   0.0000040  -0.0000176   0.0000036  -0.0000074   0.0000131   0.0000080
    2  -0.0000093   0.0000001   0.0000022  -0.0000068   0.0000159  -0.0000042
    3  -0.0000048  -0.0000037   0.0000087   0.0000069  -0.0000235   0.0000166
            7           8           9          10          11          12
    1  -0.0000069  -0.0000025  -0.0000053   0.0000021   0.0000015   0.0000137
    2  -0.0000020  -0.0000077  -0.0000052  -0.0000098  -0.0000015  -0.0000002
    3   0.0000013   0.0000065   0.0000044   0.0000038   0.0000014  -0.0000005
           13          14          15          16
    1   0.0000022   0.0000061  -0.0000081  -0.0000064
    2   0.0000064   0.0000088   0.0000054   0.0000078
    3  -0.0000016   0.0000001  -0.0000086  -0.0000070
 Max gradient component =       2.347E-05
 RMS gradient           =       7.978E-06
 Gradient time:  CPU 200.56 s  wall 13.20 s
 Geometry Optimization Parameters
   NAtoms,    NIC,     NZ,  NCons,   NDum,   NFix, NCnnct, MaxDiis
       16     148       0       0       0       0       0       0

 Cartesian Hessian Update
 Hessian Updated using BFGS Update


** GEOMETRY OPTIMIZATION IN DELOCALIZED INTERNAL COORDINATES **
   Searching for a Minimum

   Optimization Cycle:   5

                       Coordinates (Angstroms)
     ATOM                X               Y               Z
      1  C         0.9169305344   -0.7547182772   -0.6858514875
      2  C         0.4760970145   -0.5878824615    0.7867192747
      3  C         0.8267157984    0.9080471518    0.6094337072
      4  C         0.2968747779    0.6551134813   -0.8206915181
      5  C        -1.1879826220    0.3747872935   -0.5642534564
      6  C        -1.0514756035   -0.5719277645    0.6616017591
      7  H         0.4766389354   -1.5694965366   -1.2656222254
      8  H         2.0008959805   -0.7486506851   -0.8019952952
      9  H         0.9059897719   -1.1877836757    1.5873786187
     10  H         1.9010484862    1.0919820561    0.6321394953
     11  H         0.3023841754    1.6372401380    1.2316468665
     12  H         0.5446396849    1.3160949610   -1.6498660713
     13  H        -1.6690897137   -0.1070758068   -1.4172818652
     14  H        -1.7459500809    1.2841452396   -0.3337333419
     15  H        -1.4606574715   -1.5662958693    0.4739839888
     16  H        -1.5330596677   -0.1735792444    1.5563915506
   Point Group: c1    Number of degrees of freedom:    42


   Energy is   -234.643166501

 Hessian Updated using BFGS Update

 42 Hessian modes will be used to form the next step
  Hessian Eigenvalues:
     0.005256    0.019493    0.020997    0.025002    0.025893    0.028706
     0.034153    0.039069    0.039367    0.039600    0.044755    0.046848
     0.050632    0.053495    0.060814    0.061577    0.062029    0.062603
     0.067859    0.068047    0.080046    0.097356    0.108375    0.123474
     0.130487    0.198884    0.224185    0.225107    0.233182    0.257500
     0.274854    0.305873    0.335176    0.336690    0.337919    0.338329
     0.338382    0.338405    0.339496    0.340882    0.341114    0.342461

 Minimum Search - Taking Simple RFO Step
 Searching for Lamda that Minimizes Along All modes
 Value Taken    Lamda =   0.00000000
 Step Taken.  Stepsize is  0.000483

                             Maximum     Tolerance    Cnvgd?
         Gradient           0.000011      0.000100     YES
         Displacement       0.000318      0.000400     YES
         Energy change     -0.000000      0.000000     YES

 Final energy is   -234.643166501162     


 ******************************
 **  OPTIMIZATION CONVERGED  **
 ******************************

                       Coordinates (Angstroms)
     ATOM                X               Y               Z
      1  C         0.9169305344   -0.7547182772   -0.6858514875
      2  C         0.4760970145   -0.5878824615    0.7867192747
      3  C         0.8267157984    0.9080471518    0.6094337072
      4  C         0.2968747779    0.6551134813   -0.8206915181
      5  C        -1.1879826220    0.3747872935   -0.5642534564
      6  C        -1.0514756035   -0.5719277645    0.6616017591
      7  H         0.4766389354   -1.5694965366   -1.2656222254
      8  H         2.0008959805   -0.7486506851   -0.8019952952
      9  H         0.9059897719   -1.1877836757    1.5873786187
     10  H         1.9010484862    1.0919820561    0.6321394953
     11  H         0.3023841754    1.6372401380    1.2316468665
     12  H         0.5446396849    1.3160949610   -1.6498660713
     13  H        -1.6690897137   -0.1070758068   -1.4172818652
     14  H        -1.7459500809    1.2841452396   -0.3337333419
     15  H        -1.4606574715   -1.5662958693    0.4739839888
     16  H        -1.5330596677   -0.1735792444    1.5563915506

Z-matrix Print:
$molecule
0 1
C 
H  1 1.088951
C  1 1.532692 2 117.312347
H  3 1.091473 1 112.148904 2 60.932447 0
H  3 1.091512 1 112.221820 2 -60.734004 0
C  1 1.545951 2 121.810061 3 -126.491287 0
H  6 1.090201 1 112.619538 2 -49.110182 0
H  6 1.092609 1 118.133530 2 81.495102 0
C  1 1.546052 2 121.915436 3 126.606289 0
H  9 1.090187 1 112.606618 2 49.014233 0
H  9 1.092636 1 118.171198 2 -81.600354 0
C  9 1.546167 1 82.548992 2 160.448164 0
H  12 1.088919 9 121.889007 1 -160.444562 0
C  12 1.532771 9 101.977472 1 66.330975 0
H  14 1.091446 12 112.124291 9 -163.265599 0
H  14 1.091512 12 112.219329 9 75.051297 0
$end

 No wavefunction analysis requested
Archival summary:
1\1\nid00496\OPT\ProcedureUnspecified\BasisUnspecified\610\cgrambow\MonFeb1115:09:592019MonFeb1115:09:592019\0\\#,OPT,ProcedureUnspecified,BasisUnspecified,\\0,1\C\H,1,1.08895\C,1,1.53269,2,117.312\H,3,1.09147,1,112.149,2,60.9324,0\H,3,1.09151,1,112.222,2,-60.734,0\C,1,1.54595,2,121.81,3,-126.491,0\H,6,1.0902,1,112.62,2,-49.1102,0\H,6,1.09261,1,118.134,2,81.4951,0\C,1,1.54605,2,121.915,3,126.606,0\H,9,1.09019,1,112.607,2,49.0142,0\H,9,1.09264,1,118.171,2,-81.6004,0\C,9,1.54617,1,82.549,2,160.448,0\H,12,1.08892,9,121.889,1,-160.445,0\C,12,1.53277,9,101.977,1,66.331,0\H,14,1.09145,12,112.124,9,-163.266,0\H,14,1.09151,12,112.219,9,75.0513,0\\\@

 Total job time:  226.10s(wall), 3467.78s(cpu) 
 Mon Feb 11 15:09:59 2019

        *************************************************************
        *                                                           *
        *  Thank you very much for using Q-Chem.  Have a nice day.  *
        *                                                           *
        *************************************************************



Running Job 2 of 2 molopt485.in
qchem molopt485.in_30744.1 /tmp/qchem30744/ 1
/global/common/cori/software/qchem/5.1/exe/qcprog.exe molopt485.in_30744.1 /tmp/qchem30744/
Check license passed

                  Welcome to Q-Chem
     A Quantum Leap Into The Future Of Chemistry


 Q-Chem 5.1, Q-Chem, Inc., Pleasanton, CA (2018)

 Yihan Shao,  Zhengting Gan,  E. Epifanovsky,  A. T. B. Gilbert,  M. Wormit,  
 J. Kussmann,  A. W. Lange,  A. Behn,  Jia Deng,  Xintian Feng,  D. Ghosh,  
 M. Goldey,  P. R. Horn,  L. D. Jacobson,  I. Kaliman,  T. Kus,  A. Landau,  
 Jie Liu,  E. I. Proynov,  R. M. Richard,  R. P. Steele,  E. J. Sundstrom,  
 H. L. Woodcock III,  P. M. Zimmerman,  D. Zuev,  B. Albrecht,  E. Alguire,  
 S. A. Baeppler,  D. Barton,  Z. Benda,  Y. A. Bernard,  E. J. Berquist,  
 K. B. Bravaya,  H. Burton,  D. Casanova,  Chun-Min Chang,  Yunqing Chen,  
 A. Chien,  K. D. Closser,  M. P. Coons,  S. Coriani,  S. Dasgupta,  
 A. L. Dempwolff,  M. Diedenhofen,  Hainam Do,  R. G. Edgar,  Po-Tung Fang,  
 S. Faraji,  S. Fatehi,  Qingguo Feng,  K. D. Fenk,  J. Fosso-Tande,  
 Qinghui Ge,  A. Ghysels,  G. Gidofalvi,  J. Gomes,  J. Gonthier,  A. Gunina,  
 D. Hait,  M. W. D. Hanson-Heine,  P. H. P. Harbach,  A. W. Hauser,  
 J. E. Herr,  E. G. Hohenstein,  Z. C. Holden,  Kerwin Hui,  B. C. Huynh,  
 T.-C. Jagau,  Hyunjun Ji,  B. Kaduk,  K. Khistyaev,  Jaehoon Kim,  
 P. Klunzinger,  K. Koh,  D. Kosenkov,  L. Koulias,  T. Kowalczyk,  
 C. M. Krauter,  A. Kunitsa,  Ka Un Lao,  A. Laurent,  K. V. Lawler,  
 Joonho Lee,  D. Lefrancois,  S. Lehtola,  D. S. Levine,  Yi-Pei Li,  
 You-Sheng Lin,  Fenglai Liu,  E. Livshits,  A. Luenser,  P. Manohar,  
 E. Mansoor,  S. F. Manzer,  Shan-Ping Mao,  Yuezhi Mao,  N. Mardirossian,  
 A. V. Marenich,  T. Markovich,  L. A. Martinez-Martinez,  S. A. Maurer,  
 N. J. Mayhall,  S. C. McKenzie,  J.-M. Mewes,  A. F. Morrison,  
 J. W. Mullinax,  K. Nanda,  T. S. Nguyen-Beck,  R. Olivares-Amaya,  
 J. A. Parkhill,  T. M. Perrine,  F. Plasser,  P. Pokhilko,  S. Prager,  
 A. Prociuk,  E. Ramos,  D. R. Rehn,  F. Rob,  M. Schneider,  N. Sergueev,  
 S. M. Sharada,  S. Sharma,  D. W. Small,  T. Stauch,  T. Stein,  
 Yu-Chuan Su,  A. J. W. Thom,  A. Tkatchenko,  T. Tsuchimochi,  N. M. Tubman,  
 L. Vogt,  M. L. Vidal,  O. Vydrov,  M. A. Watson,  J. Wenzel,  
 M. de Wergifosse,  T. A. Wesolowski,  A. White,  J. Witte,  A. Yamada,  
 Jun Yang,  K. Yao,  S. Yeganeh,  S. R. Yost,  Zhi-Qiang You,  A. Zech,  
 Igor Ying Zhang,  Xing Zhang,  Yan Zhao,  Ying Zhu,  B. R. Brooks,  
 G. K. L. Chan,  C. J. Cramer,  M. S. Gordon,  W. J. Hehre,  A. Klamt,  
 M. W. Schmidt,  C. D. Sherrill,  D. G. Truhlar,  A. Aspuru-Guzik,  R. Baer,  
 A. T. Bell,  N. A. Besley,  Jeng-Da Chai,  R. A. DiStasio Jr.,  A. Dreuw,  
 B. D. Dunietz,  T. R. Furlani,  Chao-Ping Hsu,  Yousung Jung,  Jing Kong,  
 D. S. Lambrecht,  WanZhen Liang,  C. Ochsenfeld,  V. A. Rassolov,  
 L. V. Slipchenko,  J. E. Subotnik,  T. Van Voorhis,  J. M. Herbert,  
 A. I. Krylov,  P. M. W. Gill,  M. Head-Gordon

 Contributors to earlier versions of Q-Chem not listed above: 
 R. D. Adamson,  B. Austin,  J. Baker,  G. J. O. Beran,  K. Brandhorst,  
 S. T. Brown,  E. F. C. Byrd,  A. K. Chakraborty,  C.-L. Cheng,  
 Siu Hung Chien,  D. M. Chipman,  D. L. Crittenden,  H. Dachsel,  
 R. J. Doerksen,  A. D. Dutoi,  L. Fusti-Molnar,  W. A. Goddard III,  
 A. Golubeva-Zadorozhnaya,  S. R. Gwaltney,  G. Hawkins,  A. Heyden,  
 S. Hirata,  G. Kedziora,  F. J. Keil,  C. Kelley,  Jihan Kim,  R. A. King,  
 R. Z. Khaliullin,  P. P. Korambath,  W. Kurlancheek,  A. M. Lee,  M. S. Lee,  
 S. V. Levchenko,  Ching Yeh Lin,  D. Liotard,  R. C. Lochan,  I. Lotan,  
 P. E. Maslen,  N. Nair,  D. P. O'Neill,  D. Neuhauser,  E. Neuscamman,  
 C. M. Oana,  R. Olson,  B. Peters,  R. Peverati,  P. A. Pieniazek,  
 Y. M. Rhee,  J. Ritchie,  M. A. Rohrdanz,  E. Rosta,  N. J. Russ,  
 H. F. Schaefer III,  N. E. Schultz,  N. Shenvi,  A. C. Simmonett,  A. Sodt,  
 D. Stuck,  K. S. Thanthiriwatte,  V. Vanovschi,  Tao Wang,  A. Warshel,  
 C. F. Williams,  Q. Wu,  X. Xu,  W. Zhang

 Please cite Q-Chem as follows:
 Y. Shao et al., Mol. Phys. 113, 184-215 (2015)
 DOI: 10.1080/00268976.2014.952696

 Q-Chem 5.1.0 for Intel X86 EM64T Linux

 Parts of Q-Chem use Armadillo 8.300.2 (Tropical Shenanigans).
 http://arma.sourceforge.net/

 Q-Chem begins on Mon Feb 11 15:10:02 2019  

Host: cori10
0

     Scratch files written to /tmp/qchem30744//
 Jun2518 |scratch|qcdevops|jenkins|workspace|build_RNUM -1
Processing $rem in /global/common/cori/software/qchem/5.1/config/preferences.
 MEM_TOTAL  96000 
The previous job contains 0 fragments, simply inherited here

Checking the input file for inconsistencies... 	...done.

--------------------------------------------------------------
User input:
--------------------------------------------------------------

$molecule
read
$end

$rem
JOBTYPE                   FREQ
METHOD                    wB97X-D3
BASIS                     def2-TZVP
UNRESTRICTED              TRUE
SCF_GUESS                 READ
SCF_ALGORITHM             DIIS
MAX_SCF_CYCLES            100
SCF_CONVERGENCE           8
SYM_IGNORE                TRUE
SYMMETRY                  FALSE
WAVEFUNCTION_ANALYSIS     FALSE
$end
--------------------------------------------------------------
 Adding empirical dispersion correction 
 ----------------------------------------------------------------
 Doing -D3(0) with
 s6  =   1.00000
 s8  =   1.00000
 rs6 =   1.28100
 rs8 =   1.09400
 -D3 energy without 3body term =     -0.0039989277 hartrees
 ----------------------------------------------------------------
             Standard Nuclear Orientation (Angstroms)
    I     Atom           X                Y                Z
 ----------------------------------------------------------------
    1      C       0.9169305344    -0.7547182772    -0.6858514875
    2      C       0.4760970145    -0.5878824615     0.7867192747
    3      C       0.8267157984     0.9080471518     0.6094337072
    4      C       0.2968747779     0.6551134813    -0.8206915181
    5      C      -1.1879826220     0.3747872935    -0.5642534564
    6      C      -1.0514756035    -0.5719277645     0.6616017591
    7      H       0.4766389354    -1.5694965366    -1.2656222254
    8      H       2.0008959805    -0.7486506851    -0.8019952952
    9      H       0.9059897719    -1.1877836757     1.5873786187
   10      H       1.9010484862     1.0919820561     0.6321394953
   11      H       0.3023841754     1.6372401380     1.2316468665
   12      H       0.5446396849     1.3160949610    -1.6498660713
   13      H      -1.6690897137    -0.1070758068    -1.4172818652
   14      H      -1.7459500809     1.2841452396    -0.3337333419
   15      H      -1.4606574715    -1.5662958693     0.4739839888
   16      H      -1.5330596677    -0.1735792444     1.5563915506
 ----------------------------------------------------------------
 Nuclear Repulsion Energy =   250.6408614190 hartrees
 There are       23 alpha and       23 beta electrons
 Requested basis set is def2-TZVP
 There are 106 shells and 246 basis functions

 Total QAlloc Memory Limit  96000 MB
 Mega-Array Size       188 MB
 MEM_STATIC part       192 MB
 A cutoff of  1.0D-11 yielded   5530 shell pairs
 There are     30466 function pairs (     38515 Cartesian)
 
 -------------------------------------------------------
 OpenMP Integral Computing Module                       
 Release: version 1.0, May 2013, Q-Chem Inc. Pittsburgh 
 -------------------------------------------------------
 Integral Job Info:
 Integral job number is                      11
 Integral operator is                         1
 short-range coefficients              19572800
 long-range coefficients              100000000
 Omega coefficients                         250
 if combine SR and LR in K                    1
 Integral screening is                        0
 Integral computing path is                   2
 max size of driver memory is            800000
 size of driver memory is                776718
 size of scratch memory is              4473992
 max col of scratch BK array              10000
 max len of scratch array in speh3          662
 max len of scratch index in speh4           32
 max int batch size is                      520
 min int batch size is                       52
 fixed nKL is                                52
 max L of basis functions is                  3
 order of int derivative is                   0
 number of shells is                        106
 number of basis is                         276
 number of cartesian basis is               276
 number of contracted shell pairs          5530
 number of primitive shell pairs          12806
 maxK2 (contraction) of shell pair           36
 max number of K2 of shell pair               1
 max number of CS2 of shell pair            881
 max number of PS2 of shell pair           1644
 mem total for path MDJ                  587568
 -------------------------------------------------------
 Smallest overlap matrix eigenvalue = 4.41E-05

 -----------------------------------------------------------------------
  General SCF calculation program by
  Eric Jon Sundstrom, Paul Horn, Yuezhi Mao, Dmitri Zuev, Alec White,
  David Stuck, Shaama M.S., Shane Yost, Joonho Lee, David Small,
  Daniel Levine, Susi Lehtola, Hugh Burton, Evgeny Epifanovsky
 -----------------------------------------------------------------------
 Exchange:     0.1957 Hartree-Fock + 1.0000 wB97X-D3 + LR-HF
 Correlation:  1.0000 wB97X-D3
 Using SG-2 standard quadrature grid
 Dispersion:   Grimme D3
 using 16 threads for integral computing
 -------------------------------------------------------
 OpenMP Integral computing Module                
 Release: version 1.0, May 2013, Q-Chem Inc. Pittsburgh 
 -------------------------------------------------------
 using 16 threads for integral computing
 -------------------------------------------------------
 OpenMP Integral computing Module                
 Release: version 1.0, May 2013, Q-Chem Inc. Pittsburgh 
 -------------------------------------------------------
 -------------------------------------------------------
 OpenMP BLAS3 based DFT computing Module                
 Release: version 1.0, May 2013, Q-Chem Inc. Pittsburgh 
 -------------------------------------------------------
 A unrestricted SCF calculation will be
 performed using DIIS
 SCF converges when DIIS error is below 1.0e-08
 ---------------------------------------
  Cycle       Energy         DIIS error
 ---------------------------------------
    1    -234.6431665012      1.18e-09  
    2    -234.6431665012      9.29e-10  Convergence criterion met
 ---------------------------------------
 SCF time:   CPU 138.35s  wall 8.00s 
<S^2> =          0.000000000
 SCF   energy in the final basis set =     -234.6431665012
 Total energy in the final basis set =     -234.6431665012
 No wavefunction analysis requested
 Calculating MO derivatives via CPSCF
 D1JvT checksum  = 2386560 72422.7481441184
 D1KAT checksum  = 4753152 6162.8530460937
 D1JvT checksum  = 2386560 48554.5135372859
 D1KAT checksum  = 4753152 2856.7108212777
   1         3          48      0.244220    0.020266
   2         3          48      0.041383    0.004534
   3         3          48      0.005116    0.000453
   4         3          48      0.000614    0.000058
   5        30          21      0.000052    0.000007
   6        51           0      0.000000    0.000000    Roots Converged
 Time for AOints: 570.6 s (CPU) 38.0 s (wall)
 ------------------------------------------------------------------------------
                     AOints        : Timing summary (seconds)
 ------------------------------------------------------------------------------
     job step          cpu (% of tot)      sys (% of tot)     wall (% of tot)
 ------------------------------------------------------------------------------
  cpscf_lag         0.3346E+04 (40.2)   0.4419E-02 (51.8)   0.8553E+03 (42.8)
  iterzp            0.4410E+04 (53.0)   0.3389E-02 (39.7)   0.1102E+04 (55.2)
  make_fx           0.0000E+00 ( 0.0)   0.0000E+00 ( 0.0)   0.0000E+00 ( 0.0)
  AOints            0.5706E+03 ( 6.9)   0.7150E-03 ( 8.4)   0.3798E+02 ( 1.9)
 ------------------------------------------------------------------------------
   Grand Totals     0.8327E+04          0.8538E-02          0.1996E+04
 ------------------------------------------------------------------------------
 Calculating analytic Hessian of the SCF energy
 Polarizability Matrix (a.u.)
            1           2           3
    1 -66.5090867  -0.3064056   0.1807068
    2  -0.3064056 -63.2199991  -0.2986530
    3   0.1807068  -0.2986530 -63.0316007
 Running MAKENN_D3_FD2ND
 
 Direct stationary perturbation theory relativistic correction:
 
 rels  =       0.053064939205
 relv  =      -0.262249453999
 rel2e =       0.000000000000
 E_rel =      -0.209184514794
 
 Hessian of the SCF Energy
            1           2           3           4           5           6
    1   0.6258337   0.0380513  -0.0052387  -0.0778018   0.0012548   0.0193719
    2   0.0380513   0.5084957   0.1419202   0.0028173  -0.0516707  -0.0101064
    3  -0.0052387   0.1419202   0.4300404   0.0235493  -0.0142530  -0.1619842
    4  -0.0778018   0.0028173   0.0235493   0.4651947  -0.0561650   0.0773250
    5   0.0012548  -0.0516707  -0.0142530  -0.0561650   0.4813301  -0.1587046
    6   0.0193719  -0.0101064  -0.1619842   0.0773250  -0.1587046   0.5719020
    7   0.0086026   0.0168790   0.0122185  -0.0749385  -0.0135992   0.0013662
    8  -0.0092711  -0.0552184  -0.0425046  -0.0176644  -0.1627891   0.0121889
    9  -0.0081440  -0.0453857  -0.0328441   0.0009959   0.0161361  -0.0519947
   10  -0.0840761   0.0328654  -0.0010064   0.0060050   0.0030685  -0.0036566
   11   0.0290184  -0.1553109   0.0148172   0.0089198  -0.0353224   0.0505227
   12  -0.0007840   0.0100308  -0.0524829  -0.0117901   0.0504387  -0.0616166
   13  -0.0283688   0.0068964  -0.0021695  -0.0128040   0.0202387  -0.0266219
   14   0.0338481  -0.0026161   0.0004134   0.0130284  -0.0080724   0.0084278
   15   0.0113904  -0.0042991   0.0019704  -0.0175387   0.0088626  -0.0150183
   16  -0.0241312  -0.0032106   0.0109492  -0.1786971  -0.0012675  -0.0056117
   17   0.0156825   0.0023660  -0.0066303   0.0026252  -0.0715322   0.0021864
   18   0.0327304   0.0031920  -0.0071155  -0.0100725   0.0020302  -0.0738283
   19  -0.0990764  -0.0824348  -0.0585634   0.0010030   0.0062968   0.0035377
   20  -0.0810010  -0.1932252  -0.1005931   0.0028247   0.0006483   0.0016768
   21  -0.0574611  -0.1003818  -0.1222387  -0.0125974  -0.0196285  -0.0068726
   22  -0.3177644  -0.0041553   0.0278955  -0.0055702  -0.0000517  -0.0015381
   23  -0.0075335  -0.0475438  -0.0052324  -0.0049526  -0.0011909   0.0016606
   24   0.0253000  -0.0056136  -0.0475514   0.0302795  -0.0022396  -0.0004690
   25   0.0037883  -0.0075914   0.0061976  -0.0933413   0.0608079  -0.0803556
   26  -0.0056609   0.0039768  -0.0040548   0.0613570  -0.1340571   0.1077595
   27  -0.0116137   0.0134364  -0.0082459  -0.0810792   0.1077631  -0.1978725
   28   0.0007010   0.0016691   0.0010299  -0.0044852   0.0011136  -0.0003158
   29  -0.0020840  -0.0002732   0.0014185  -0.0283474  -0.0025439  -0.0038703
   30  -0.0019003   0.0009645  -0.0008399   0.0119218   0.0024129  -0.0004312
   31  -0.0001120  -0.0018112  -0.0015148   0.0010187  -0.0044070  -0.0042557
   32  -0.0026146  -0.0054071  -0.0030330   0.0132080  -0.0101987  -0.0163838
   33  -0.0021373  -0.0031249  -0.0032978  -0.0062714   0.0038785   0.0038705
   34   0.0027769   0.0047622  -0.0108919  -0.0026098   0.0027556  -0.0035942
   35  -0.0094958  -0.0058643   0.0163309   0.0013645  -0.0032902   0.0019947
   36  -0.0025509  -0.0025534   0.0026638  -0.0017940   0.0021008  -0.0046147
   37   0.0020774  -0.0020486  -0.0005472  -0.0002853  -0.0002766  -0.0000761
   38   0.0008826   0.0012923   0.0006850   0.0000070  -0.0015324   0.0027919
   39  -0.0004582   0.0001523   0.0004348   0.0003684   0.0011076  -0.0021796
   40  -0.0069339  -0.0017623   0.0011074  -0.0002751   0.0000795   0.0002934
   41  -0.0018837   0.0005867   0.0000013  -0.0003528  -0.0012480   0.0010319
   42   0.0020790   0.0006877  -0.0005438   0.0000177   0.0027409  -0.0025009
   43   0.0020618  -0.0008011  -0.0020483  -0.0101054  -0.0308188  -0.0041794
   44  -0.0000620   0.0005552   0.0001176   0.0012699   0.0032439   0.0006482
   45   0.0006821   0.0010810   0.0012254  -0.0008890  -0.0052114  -0.0017963
   46  -0.0075773  -0.0001255  -0.0009672  -0.0123076   0.0109705   0.0283109
   47   0.0008689  -0.0001429   0.0005970   0.0000603  -0.0017744  -0.0018243
   48  -0.0012656  -0.0000001   0.0008093  -0.0024255   0.0025658   0.0054063
            7           8           9          10          11          12
    1   0.0086026  -0.0092711  -0.0081440  -0.0840761   0.0290184  -0.0007840
    2   0.0168790  -0.0552184  -0.0453857   0.0328654  -0.1553109   0.0100308
    3   0.0122185  -0.0425046  -0.0328441  -0.0010064   0.0148172  -0.0524829
    4  -0.0749385  -0.0176644   0.0009959   0.0060050   0.0089198  -0.0117901
    5  -0.0135992  -0.1627891   0.0161361   0.0030685  -0.0353224   0.0504387
    6   0.0013662   0.0121889  -0.0519947  -0.0036566   0.0505227  -0.0616166
    7   0.6295357  -0.0044201  -0.0368009  -0.0799040  -0.0073687  -0.0243737
    8  -0.0044201   0.4996715   0.1411880  -0.0085882  -0.0530438  -0.0136577
    9  -0.0368009   0.1411880   0.4313931  -0.0281079  -0.0181719  -0.1573104
   10  -0.0799040  -0.0085882  -0.0281079   0.4417604   0.0343194  -0.0364175
   11  -0.0073687  -0.0530438  -0.0181719   0.0343194   0.4997284  -0.1731168
   12  -0.0243737  -0.0136577  -0.1573104  -0.0364175  -0.1731168   0.5811788
   13  -0.0244888  -0.0012392  -0.0078690  -0.1736733  -0.0165405   0.0139377
   14  -0.0203818  -0.0004924  -0.0065945  -0.0199585  -0.0754095   0.0045128
   15  -0.0311645  -0.0025860  -0.0033969   0.0182302   0.0048932  -0.0755055
   16  -0.0214187  -0.0105988   0.0039721  -0.0038918  -0.0185897   0.0238048
   17  -0.0370978  -0.0104866   0.0038807  -0.0119992  -0.0139747   0.0140780
   18  -0.0082053  -0.0052664   0.0024888   0.0150898   0.0134216  -0.0186436
   19  -0.0006504   0.0023703   0.0017737   0.0032657   0.0070658   0.0070816
   20   0.0031724  -0.0045498  -0.0029881  -0.0121906  -0.0113871  -0.0142861
   21   0.0023986  -0.0029125  -0.0036249   0.0056196   0.0044596   0.0028186
   22   0.0005977  -0.0013679  -0.0013233  -0.0099301  -0.0023443   0.0017964
   23   0.0023584  -0.0002000   0.0009845   0.0266153   0.0022057  -0.0059748
   24   0.0015385   0.0013968  -0.0008786  -0.0114673   0.0005499   0.0005392
   25   0.0026106  -0.0035147   0.0078528  -0.0015630  -0.0022691   0.0029355
   26   0.0123521  -0.0047334   0.0170296  -0.0008721  -0.0039306   0.0026720
   27   0.0028578  -0.0016966   0.0016107   0.0011409   0.0025379  -0.0049953
   28  -0.3137520  -0.0432726  -0.0031244  -0.0087389  -0.0014568   0.0019831
   29  -0.0398639  -0.0544112  -0.0065894   0.0039485  -0.0004941   0.0015941
   30  -0.0004837  -0.0061640  -0.0444166  -0.0287995  -0.0073070   0.0020097
   31  -0.1173063   0.0866119   0.0738765   0.0034884  -0.0074354  -0.0046585
   32   0.0851770  -0.1629423  -0.0958439  -0.0022914  -0.0010378   0.0011876
   33   0.0727544  -0.0959651  -0.1340907   0.0149357  -0.0166093  -0.0077309
   34   0.0017338   0.0083956  -0.0063644  -0.0652318  -0.0390518   0.0488177
   35   0.0047996   0.0063700  -0.0056357  -0.0395558  -0.1533165   0.1236949
   36   0.0081914   0.0145294  -0.0086222   0.0495022   0.1236918  -0.2088730
   37  -0.0069622  -0.0010906   0.0015306  -0.0123162  -0.0122716  -0.0259413
   38  -0.0020366  -0.0004946   0.0009480  -0.0020359  -0.0040164  -0.0064728
   39   0.0019293   0.0003225   0.0005697   0.0034695   0.0040954   0.0074857
   40   0.0019747   0.0010824   0.0019053  -0.0142605   0.0271210   0.0048308
   41   0.0002822   0.0007842   0.0004351  -0.0043212   0.0078667   0.0016648
   42  -0.0009620   0.0008412   0.0010935   0.0028221  -0.0074285  -0.0023342
   43  -0.0075575   0.0003779  -0.0004735  -0.0004610   0.0003115  -0.0006549
   44   0.0004478   0.0009835  -0.0002403   0.0005824  -0.0011299   0.0009014
   45  -0.0015672   0.0002689  -0.0003192  -0.0006522   0.0026663  -0.0024225
   46   0.0019233   0.0021898   0.0003003  -0.0004728   0.0005719  -0.0005677
   47  -0.0007004   0.0015523   0.0008475   0.0004135  -0.0014271   0.0027331
   48   0.0003026   0.0000171   0.0003425  -0.0007028   0.0009779  -0.0021171
           13          14          15          16          17          18
    1  -0.0283688   0.0338481   0.0113904  -0.0241312   0.0156825   0.0327304
    2   0.0068964  -0.0026161  -0.0042991  -0.0032106   0.0023660   0.0031920
    3  -0.0021695   0.0004134   0.0019704   0.0109492  -0.0066303  -0.0071155
    4  -0.0128040   0.0130284  -0.0175387  -0.1786971   0.0026252  -0.0100725
    5   0.0202387  -0.0080724   0.0088626  -0.0012675  -0.0715322   0.0020302
    6  -0.0266219   0.0084278  -0.0150183  -0.0056117   0.0021864  -0.0738283
    7  -0.0244888  -0.0203818  -0.0311645  -0.0214187  -0.0370978  -0.0082053
    8  -0.0012392  -0.0004924  -0.0025860  -0.0105988  -0.0104866  -0.0052664
    9  -0.0078690  -0.0065945  -0.0033969   0.0039721   0.0038807   0.0024888
   10  -0.1736733  -0.0199585   0.0182302  -0.0038918  -0.0119992   0.0150898
   11  -0.0165405  -0.0754095   0.0048932  -0.0185897  -0.0139747   0.0134216
   12   0.0139377   0.0045128  -0.0755055   0.0238048   0.0140780  -0.0186436
   13   0.5204412  -0.0636044   0.0735085  -0.0687320   0.0055921  -0.0068166
   14  -0.0636044   0.5497611   0.0894986   0.0054203  -0.1106240   0.0386683
   15   0.0735085   0.0894986   0.5134090  -0.0067248   0.0387415  -0.1316245
   16  -0.0687320   0.0054203  -0.0067248   0.4852520   0.0594454  -0.0838892
   17   0.0055921  -0.1106240   0.0387415   0.0594454   0.5718843   0.0694911
   18  -0.0068166   0.0386683  -0.1316245  -0.0838892   0.0694911   0.5271185
   19   0.0017438   0.0008350   0.0003492   0.0014433   0.0006839   0.0006566
   20  -0.0021111   0.0009450   0.0002546   0.0002327   0.0005148  -0.0002442
   21   0.0007639  -0.0004975   0.0004085  -0.0023969   0.0001249   0.0012889
   22  -0.0004614   0.0024316   0.0007103   0.0000488   0.0009975   0.0012071
   23   0.0024499  -0.0053789  -0.0014344  -0.0002490  -0.0007027   0.0018788
   24  -0.0012229   0.0028353  -0.0008338   0.0021822  -0.0025384  -0.0060203
   25  -0.0051588   0.0004416  -0.0010009  -0.0049978   0.0165037  -0.0214688
   26  -0.0012203   0.0007758   0.0003178  -0.0017751   0.0012985  -0.0029459
   27   0.0011324   0.0004286   0.0006142   0.0019836  -0.0016743   0.0014015
   28  -0.0001702  -0.0011020  -0.0020227   0.0002446  -0.0011752  -0.0005283
   29   0.0005299  -0.0008139   0.0015579  -0.0015799  -0.0060658  -0.0013639
   30  -0.0022097  -0.0028242  -0.0056808   0.0006292   0.0031502  -0.0008588
   31   0.0017126  -0.0004540  -0.0006437   0.0013894  -0.0007973  -0.0004651
   32  -0.0001005   0.0003558  -0.0004197   0.0022286   0.0012284   0.0000006
   33   0.0022721   0.0005802   0.0011096  -0.0007855  -0.0006018   0.0005205
   34  -0.0005408  -0.0171153   0.0219797  -0.0050898  -0.0014652   0.0014413
   35   0.0011790  -0.0014054   0.0007703   0.0002150   0.0007341   0.0004698
   36  -0.0015026  -0.0005098  -0.0003315  -0.0007002   0.0003615   0.0005811
   37  -0.0979867  -0.0485227  -0.0888410  -0.0003632   0.0004615   0.0021216
   38  -0.0505265  -0.1037296  -0.0969266   0.0094563   0.0082984   0.0163371
   39  -0.0902916  -0.0955397  -0.2116349  -0.0084460  -0.0112796  -0.0163387
   40  -0.1147800   0.1108332   0.0272530  -0.0000144  -0.0023707   0.0001154
   41   0.1126065  -0.2360498  -0.0509282   0.0070852  -0.0133962  -0.0053117
   42   0.0288243  -0.0522734  -0.0605973  -0.0129969   0.0209351   0.0048608
   43   0.0013094   0.0068129   0.0010625  -0.0833001  -0.0877376  -0.0157475
   44  -0.0049818  -0.0136076  -0.0047541  -0.0893821  -0.2715786  -0.0454937
   45   0.0095108   0.0224814   0.0039028  -0.0170543  -0.0472163  -0.0567330
   46   0.0019579  -0.0025125  -0.0065474  -0.0977419   0.0406511   0.0938311
   47  -0.0091683   0.0063622   0.0164516   0.0425691  -0.0879637  -0.0848635
   48   0.0087541  -0.0096073  -0.0167911   0.0950843  -0.0830085  -0.2270972
           19          20          21          22          23          24
    1  -0.0990764  -0.0810010  -0.0574611  -0.3177644  -0.0075335   0.0253000
    2  -0.0824348  -0.1932252  -0.1003818  -0.0041553  -0.0475438  -0.0056136
    3  -0.0585634  -0.1005931  -0.1222387   0.0278955  -0.0052324  -0.0475514
    4   0.0010030   0.0028247  -0.0125974  -0.0055702  -0.0049526   0.0302795
    5   0.0062968   0.0006483  -0.0196285  -0.0000517  -0.0011909  -0.0022396
    6   0.0035377   0.0016768  -0.0068726  -0.0015381   0.0016606  -0.0004690
    7  -0.0006504   0.0031724   0.0023986   0.0005977   0.0023584   0.0015385
    8   0.0023703  -0.0045498  -0.0029125  -0.0013679  -0.0002000   0.0013968
    9   0.0017737  -0.0029881  -0.0036249  -0.0013233   0.0009845  -0.0008786
   10   0.0032657  -0.0121906   0.0056196  -0.0099301   0.0266153  -0.0114673
   11   0.0070658  -0.0113871   0.0044596  -0.0023443   0.0022057   0.0005499
   12   0.0070816  -0.0142861   0.0028186   0.0017964  -0.0059748   0.0005392
   13   0.0017438  -0.0021111   0.0007639  -0.0004614   0.0024499  -0.0012229
   14   0.0008350   0.0009450  -0.0004975   0.0024316  -0.0053789   0.0028353
   15   0.0003492   0.0002546   0.0004085   0.0007103  -0.0014344  -0.0008338
   16   0.0014433   0.0002327  -0.0023969   0.0000488  -0.0002490   0.0021822
   17   0.0006839   0.0005148   0.0001249   0.0009975  -0.0007027  -0.0025384
   18   0.0006566  -0.0002442   0.0012889   0.0012071   0.0018788  -0.0060203
   19   0.1005344   0.0875580   0.0614902  -0.0104356  -0.0226225  -0.0163654
   20   0.0875580   0.2066295   0.1163620   0.0005253   0.0007855   0.0007583
   21   0.0614902   0.1163620   0.1262094   0.0015267   0.0033296   0.0021384
   22  -0.0104356   0.0005253   0.0015267   0.3420693   0.0032217  -0.0309372
   23  -0.0226225   0.0007855   0.0033296   0.0032217   0.0497180   0.0048069
   24  -0.0163654   0.0007583   0.0021384  -0.0309372   0.0048069   0.0510110
   25  -0.0000008   0.0001527  -0.0000254   0.0004244   0.0001250  -0.0007577
   26  -0.0002221   0.0001468  -0.0003536  -0.0000910   0.0001056   0.0009734
   27  -0.0001932   0.0000384  -0.0008840   0.0004406  -0.0002637   0.0011635
   28   0.0004853  -0.0001309  -0.0001795   0.0008357  -0.0001735  -0.0001321
   29   0.0003998   0.0001835   0.0002514   0.0003527  -0.0002583  -0.0006640
   30   0.0002360   0.0003091   0.0000137   0.0002461  -0.0006697   0.0000187
   31   0.0012571  -0.0006928  -0.0004363   0.0005085  -0.0003189  -0.0003255
   32   0.0008084  -0.0003540  -0.0019983   0.0002135   0.0001495   0.0002481
   33   0.0007225  -0.0018327   0.0006198   0.0000885   0.0003047   0.0000269
   34   0.0000129   0.0001046   0.0001341   0.0004742  -0.0007048   0.0003191
   35  -0.0001040  -0.0009131   0.0003413   0.0002373   0.0012345  -0.0005858
[...]
 Force Cnst:      0.7422                 1.2069                 0.8358
 Red. Mass:       1.0666                 1.7234                 1.1486
 IR Active:          YES                    YES                    YES
 IR Intens:        0.002                  0.022                  0.992
 Raman Active:       YES                    YES                    YES
               X      Y      Z        X      Y      Z        X      Y      Z
 C         -0.002  0.025 -0.024    0.054  0.113  0.082   -0.001 -0.005  0.001
 C          0.000  0.018  0.006   -0.035  0.058 -0.075   -0.023  0.029 -0.035
 C          0.003 -0.027  0.020    0.065 -0.100 -0.090   -0.006 -0.003  0.005
 C          0.004 -0.014 -0.004   -0.018 -0.060  0.076    0.024  0.031 -0.037
 C          0.000 -0.028 -0.019   -0.013  0.001  0.006    0.053 -0.011  0.024
 C         -0.005  0.028  0.021   -0.016 -0.006 -0.001   -0.050 -0.024  0.024
 H          0.034 -0.312  0.422   -0.322  0.238  0.198    0.030 -0.183  0.228
 H         -0.022  0.156 -0.203    0.026 -0.148 -0.118   -0.038  0.268 -0.331
 H          0.001 -0.312 -0.241   -0.304 -0.002  0.017   -0.397 -0.085  0.081
 H          0.018 -0.139  0.191    0.009  0.163  0.097   -0.043  0.260 -0.371
 H         -0.055  0.298 -0.410   -0.290 -0.311 -0.149    0.036 -0.183  0.251
 H         -0.006  0.297  0.242   -0.254 -0.056  0.017    0.440 -0.032  0.038
 H         -0.081  0.017  0.003    0.167  0.132 -0.171   -0.004 -0.064  0.089
 H          0.090  0.019  0.015    0.151  0.148 -0.177   -0.029 -0.079  0.086
 H          0.101 -0.011 -0.011    0.182 -0.118  0.160    0.020 -0.065  0.078
 H         -0.086 -0.028  0.001    0.199 -0.103  0.159    0.019 -0.049  0.076
 TransDip   0.001  0.000 -0.000    0.005  0.000 -0.000   -0.003  0.018 -0.026

 Mode:                19                     20                     21
 Frequency:      1160.54                1163.81                1230.02
 Force Cnst:      0.9529                 1.4670                 1.1800
 Red. Mass:       1.2008                 1.8383                 1.3238
 IR Active:          YES                    YES                    YES
 IR Intens:        1.949                  0.043                  0.003
 Raman Active:       YES                    YES                    YES
               X      Y      Z        X      Y      Z        X      Y      Z
 C         -0.069  0.000  0.023   -0.025  0.055 -0.070   -0.007  0.064 -0.078
 C         -0.001 -0.019 -0.015   -0.002  0.091  0.073   -0.005 -0.040 -0.031
 C          0.068  0.028 -0.002    0.021 -0.052  0.072    0.014 -0.059  0.079
 C          0.001  0.008  0.004    0.007 -0.090 -0.071   -0.006  0.030  0.028
 C          0.002 -0.056 -0.042   -0.006  0.090  0.072    0.003 -0.034 -0.031
 C          0.002 -0.029 -0.022    0.007 -0.106 -0.085    0.002  0.036  0.031
 H          0.066 -0.034 -0.027    0.035 -0.074  0.066    0.028 -0.210  0.280
 H         -0.071  0.162  0.038    0.025 -0.241  0.378    0.032 -0.215  0.271
 H         -0.028  0.316  0.251    0.012 -0.117 -0.091   -0.004  0.295  0.219
 H          0.055  0.099  0.131   -0.029  0.289 -0.324   -0.027  0.224 -0.264
 H         -0.062 -0.054 -0.012   -0.025  0.061 -0.098   -0.039  0.207 -0.277
 H         -0.001  0.282  0.222   -0.023  0.234  0.179    0.015 -0.270 -0.205
 H         -0.328 -0.137  0.191    0.136 -0.220  0.163    0.048  0.159 -0.166
 H          0.330  0.176 -0.157   -0.135  0.096 -0.275   -0.057 -0.133  0.210
 H         -0.307  0.127 -0.180   -0.231 -0.063  0.218   -0.088  0.117 -0.201
 H          0.307 -0.126  0.185    0.213  0.198 -0.107    0.085 -0.147  0.158
 TransDip  -0.002  0.036  0.027   -0.001  0.005  0.004   -0.001  0.000  0.001

 Mode:                22                     23                     24
 Frequency:      1259.61                1261.55                1269.78
 Force Cnst:      1.5350                 1.8664                 1.1601
 Red. Mass:       1.6420                 1.9904                 1.2212
 IR Active:          YES                    YES                    YES
 IR Intens:        6.833                  1.175                  0.016
 Raman Active:       YES                    YES                    YES
               X      Y      Z        X      Y      Z        X      Y      Z
 C         -0.024  0.082 -0.113   -0.080 -0.025  0.018    0.007  0.006 -0.006
 C          0.009 -0.044  0.051    0.153 -0.019  0.012   -0.012 -0.072 -0.058
 C         -0.025  0.084 -0.109   -0.079 -0.024  0.031    0.009 -0.010  0.015
 C          0.038 -0.022  0.047    0.121  0.065 -0.048   -0.016  0.068  0.055
 C         -0.067 -0.028  0.035   -0.061 -0.063  0.077    0.007  0.032  0.015
 C          0.052 -0.005  0.006   -0.094  0.047 -0.069    0.005 -0.026 -0.017
 H          0.074 -0.338  0.403    0.140 -0.033 -0.136    0.000 -0.088  0.129
 H          0.018 -0.162  0.253   -0.067  0.141  0.095    0.007 -0.015 -0.009
 H         -0.162 -0.087  0.120   -0.251 -0.092  0.184    0.033  0.215  0.132
 H          0.018 -0.204  0.206   -0.056 -0.108 -0.136    0.001  0.039 -0.019
 H          0.067 -0.296  0.413    0.125  0.191 -0.051   -0.026  0.110 -0.155
 H          0.126 -0.068  0.042   -0.278  0.054 -0.188    0.031 -0.203 -0.147
 H          0.117  0.093 -0.134    0.159  0.193 -0.195   -0.218 -0.267  0.316
 H          0.146  0.151 -0.161    0.210  0.197 -0.273    0.180  0.217 -0.278
 H         -0.082  0.056 -0.042    0.269 -0.166  0.253    0.276 -0.198  0.285
 H         -0.121  0.053 -0.110    0.215 -0.157  0.191   -0.289  0.220 -0.291
 TransDip   0.012 -0.051  0.065    0.029  0.013 -0.015   -0.003  0.002 -0.002

 Mode:                25                     26                     27
 Frequency:      1299.24                1306.24                1336.93
 Force Cnst:      1.7495                 1.5932                 1.8088
 Red. Mass:       1.7591                 1.5848                 1.7176
 IR Active:          YES                    YES                    YES
 IR Intens:        1.400                  1.829                  8.266
 Raman Active:       YES                    YES                    YES
               X      Y      Z        X      Y      Z        X      Y      Z
 C          0.017 -0.057 -0.035    0.002 -0.005 -0.034    0.012 -0.036  0.042
 C          0.036  0.140  0.069   -0.114 -0.009  0.093   -0.109  0.004 -0.011
 C         -0.006 -0.063 -0.030   -0.007 -0.003 -0.033    0.011 -0.031  0.044
 C         -0.058  0.136  0.083    0.124  0.019  0.073    0.070  0.032 -0.035
 C          0.008 -0.042 -0.013   -0.011  0.018 -0.047   -0.112 -0.062  0.072
 C          0.005 -0.047 -0.003   -0.008  0.030 -0.061    0.123 -0.026  0.043
 H          0.072 -0.015 -0.140    0.054 -0.175  0.162   -0.007  0.025 -0.033
 H          0.035 -0.070  0.064   -0.012  0.134 -0.181   -0.025  0.195 -0.291
 H         -0.135 -0.416 -0.256    0.426 -0.035 -0.218    0.182  0.089 -0.117
 H         -0.017 -0.060  0.058   -0.029  0.127 -0.182   -0.028  0.229 -0.258
 H         -0.087 -0.020 -0.153   -0.001 -0.177  0.176   -0.006  0.024 -0.032
 H          0.189 -0.429 -0.293   -0.428 -0.102 -0.192   -0.056  0.050 -0.072
 H         -0.163 -0.043  0.089   -0.200 -0.136  0.149    0.219  0.242 -0.292
 H          0.257  0.146 -0.135   -0.062 -0.049  0.096    0.210  0.232 -0.285
 H         -0.313  0.114 -0.139    0.126 -0.058  0.122   -0.207  0.168 -0.231
 H          0.141  0.000  0.053    0.292 -0.133  0.176   -0.210  0.172 -0.232
 TransDip  -0.002 -0.018 -0.034    0.007 -0.035  0.024   -0.005  0.056 -0.073

 Mode:                28                     29                     30
 Frequency:      1354.12                1491.59                1499.84
 Force Cnst:      1.6999                 1.4470                 1.4382
 Red. Mass:       1.5735                 1.1039                 1.0851
 IR Active:          YES                    YES                    YES
 IR Intens:        0.981                  3.525                  1.016
 Raman Active:       YES                    YES                    YES
               X      Y      Z        X      Y      Z        X      Y      Z
 C          0.033 -0.006 -0.016   -0.032  0.044  0.038   -0.003  0.008 -0.003
 C         -0.077 -0.047  0.061    0.000 -0.001 -0.001   -0.001 -0.004  0.006
 C          0.031  0.019  0.003    0.027  0.049  0.035   -0.004 -0.002 -0.010
 C         -0.125  0.029 -0.051    0.000 -0.001 -0.001    0.006 -0.005  0.008
 C          0.007 -0.052  0.067    0.001 -0.000  0.001    0.037 -0.016  0.022
 C         -0.041  0.057 -0.076   -0.002 -0.001  0.001   -0.046 -0.033  0.036
 H          0.024 -0.012 -0.023    0.453 -0.114 -0.136    0.032 -0.022  0.009
 H          0.031 -0.150 -0.055   -0.054 -0.399 -0.309   -0.004 -0.029 -0.014
 H          0.426  0.087 -0.105   -0.001  0.005  0.005    0.000 -0.006  0.006
 H          0.018  0.091  0.132    0.096 -0.394 -0.310   -0.012  0.045  0.044
 H          0.021  0.021  0.012   -0.435 -0.187 -0.103    0.057  0.010  0.031
 H          0.540 -0.035  0.098   -0.001  0.006  0.005   -0.016 -0.005  0.004
 H          0.216  0.116 -0.139   -0.005  0.013 -0.001   -0.285  0.306  0.005
 H          0.202  0.109 -0.120   -0.013 -0.004 -0.008   -0.254 -0.096 -0.305
 H          0.280 -0.114  0.153    0.015 -0.003 -0.011    0.320 -0.072 -0.452
 H          0.295 -0.112  0.176    0.004  0.017 -0.002    0.300  0.487 -0.030
 TransDip   0.031 -0.003  0.006    0.003 -0.047 -0.038    0.010  0.020 -0.023

 Mode:                31                     32                     33
 Frequency:      1509.85                1537.70                3068.23
 Force Cnst:      1.5039                 1.5725                 5.8786
 Red. Mass:       1.1197                 1.1287                 1.0599
 IR Active:          YES                    YES                    YES
 IR Intens:        4.230                  0.069                 89.316
 Raman Active:       YES                    YES                    YES
               X      Y      Z        X      Y      Z        X      Y      Z
 C          0.024 -0.031 -0.028   -0.025  0.036  0.031    0.008 -0.032 -0.026
 C         -0.006 -0.009  0.011   -0.006  0.012 -0.016    0.000  0.000  0.001
 C          0.020  0.036  0.024   -0.020 -0.040 -0.029   -0.005 -0.043 -0.033
 C         -0.008  0.006 -0.008   -0.001 -0.013  0.017    0.000  0.001  0.000
 C          0.048 -0.022  0.030    0.044 -0.011  0.016   -0.000  0.001  0.001
 C          0.025  0.020 -0.022    0.037  0.017 -0.018   -0.001  0.001  0.002
 H         -0.310  0.076  0.095    0.332 -0.077 -0.093    0.224  0.390  0.276
 H          0.042  0.263  0.205   -0.045 -0.288 -0.223   -0.314 -0.009  0.028
 H          0.042  0.004 -0.002   -0.016  0.016 -0.021   -0.005  0.003 -0.011
 H          0.069 -0.257 -0.201   -0.075  0.281  0.224    0.393  0.057  0.000
 H         -0.295 -0.129 -0.068    0.318  0.129  0.070   -0.338  0.445  0.382
 H          0.043  0.001  0.001   -0.013 -0.018  0.022   -0.003 -0.011  0.007
 H         -0.291  0.349 -0.007   -0.250  0.266  0.014   -0.003 -0.004 -0.007
 H         -0.258 -0.099 -0.344   -0.224 -0.096 -0.259    0.005 -0.010 -0.002
 H         -0.135  0.031  0.222   -0.193  0.053  0.250    0.001  0.002  0.001
 H         -0.123 -0.239  0.023   -0.180 -0.275  0.005    0.010 -0.010 -0.020
 TransDip  -0.066 -0.002 -0.001   -0.008 -0.000 -0.001    0.003 -0.241 -0.183

 Mode:                34                     35                     36
 Frequency:      3073.13                3073.53                3084.64
 Force Cnst:      5.9015                 5.8957                 5.9485
 Red. Mass:       1.0606                 1.0593                 1.0611
 IR Active:          YES                    YES                    YES
 IR Intens:       15.458                 25.244                 52.228
 Raman Active:       YES                    YES                    YES
               X      Y      Z        X      Y      Z        X      Y      Z
 C          0.008 -0.037 -0.029    0.004 -0.018 -0.015   -0.001  0.005  0.004
 C         -0.003  0.002 -0.002   -0.004  0.004 -0.006    0.003 -0.005  0.007
 C          0.003  0.029  0.022    0.002  0.016  0.012   -0.001 -0.004 -0.003
 C         -0.003 -0.005  0.006   -0.001  0.001 -0.001    0.002  0.006 -0.007
 C         -0.011  0.004 -0.006    0.035 -0.014  0.020    0.041 -0.017  0.026
 C          0.021  0.013 -0.017   -0.030 -0.018  0.024    0.030  0.019 -0.026
 H          0.251  0.443  0.313    0.126  0.220  0.158   -0.031 -0.057 -0.040
 H         -0.344 -0.012  0.029   -0.171 -0.006  0.015    0.046  0.001 -0.004
 H          0.028 -0.033  0.044    0.041 -0.059  0.079   -0.043  0.065 -0.086
 H         -0.256 -0.036  0.001   -0.138 -0.020  0.001    0.043  0.007  0.001
 H          0.228 -0.302 -0.260    0.122 -0.163 -0.137   -0.034  0.047  0.041
 H          0.027  0.068 -0.086    0.003 -0.000  0.000   -0.025 -0.076  0.095
 H          0.060  0.063  0.105   -0.185 -0.205 -0.343   -0.223 -0.245 -0.412
 H          0.072 -0.118 -0.033   -0.218  0.371  0.105   -0.257  0.437  0.122
 H         -0.105 -0.272 -0.060    0.157  0.394  0.086   -0.154 -0.393 -0.085
 H         -0.132  0.123  0.255    0.197 -0.178 -0.371   -0.198  0.180  0.378
 TransDip   0.084  0.028 -0.089    0.039 -0.103  0.117    0.231  0.010  0.000

 Mode:                37                     38                     39
 Frequency:      3113.93                3131.71                3131.94
 Force Cnst:      6.3302                 6.3870                 6.3008
 Red. Mass:       1.1080                 1.1053                 1.0902
 IR Active:          YES                    YES                    YES
 IR Intens:        0.113                 40.204                 91.931
 Raman Active:       YES                    YES                    YES
               X      Y      Z        X      Y      Z        X      Y      Z
 C          0.000 -0.000  0.000    0.022  0.008  0.004   -0.001  0.001  0.002
 C         -0.000 -0.000 -0.001   -0.008  0.010 -0.015   -0.027  0.038 -0.050
 C         -0.000  0.000 -0.000   -0.021  0.002  0.005    0.013 -0.005 -0.003
 C         -0.000  0.001  0.001    0.003  0.007 -0.010    0.011  0.027 -0.034
 C         -0.003  0.051  0.040    0.002 -0.049 -0.039   -0.003  0.014  0.010
 C          0.002 -0.056 -0.042    0.003 -0.046 -0.036    0.004  0.015  0.007
 H         -0.000 -0.002  0.001   -0.048 -0.087 -0.062   -0.009 -0.016 -0.013
 H         -0.002  0.001 -0.000   -0.218  0.000  0.023    0.015  0.002 -0.004
 H          0.003 -0.004  0.006    0.091 -0.125  0.166    0.318 -0.436  0.582
 H          0.004  0.000  0.001    0.203  0.036  0.004   -0.116 -0.018 -0.005
 H         -0.000  0.001 -0.001    0.045 -0.062 -0.054   -0.043  0.061  0.050
 H          0.001  0.001 -0.003   -0.036 -0.093  0.116   -0.122 -0.316  0.395
 H         -0.213 -0.210 -0.370    0.211  0.208  0.370   -0.046 -0.044 -0.082
 H          0.249 -0.399 -0.102   -0.235  0.381  0.095    0.079 -0.126 -0.033
 H          0.203  0.486  0.093    0.160  0.387  0.071   -0.069 -0.162 -0.032
 H         -0.223  0.181  0.406   -0.194  0.157  0.356    0.026 -0.021 -0.053
 TransDip  -0.006 -0.009 -0.003   -0.002 -0.094 -0.180   -0.014  0.226 -0.208

 Mode:                40                     41                     42
 Frequency:      3134.48                3138.47                3145.78
 Force Cnst:      6.3549                 6.4272                 6.4119
 Red. Mass:       1.0978                 1.1075                 1.0997
 IR Active:          YES                    YES                    YES
 IR Intens:       12.194                 24.807                 53.832
 Raman Active:       YES                    YES                    YES
               X      Y      Z        X      Y      Z        X      Y      Z
 C         -0.028 -0.017 -0.010   -0.059 -0.021 -0.010   -0.055 -0.014 -0.005
 C          0.013 -0.020  0.026    0.001 -0.003  0.002   -0.013  0.017 -0.023
 C         -0.036  0.012  0.014    0.060 -0.010 -0.014   -0.053  0.004  0.009
 C          0.014  0.039 -0.048    0.001  0.002 -0.004   -0.009 -0.021  0.026
 C         -0.007  0.004 -0.002    0.001 -0.019 -0.015    0.005 -0.002  0.002
 C         -0.004 -0.001  0.004    0.000 -0.019 -0.014    0.004  0.002 -0.002
 H          0.098  0.185  0.132    0.133  0.257  0.184    0.094  0.181  0.129
 H          0.247  0.002 -0.027    0.564  0.004 -0.060    0.562  0.001 -0.062
 H         -0.158  0.219 -0.292   -0.016  0.024 -0.028    0.142 -0.194  0.260
 H          0.304  0.052  0.005   -0.559 -0.094 -0.011    0.523  0.092  0.013
 H          0.132 -0.187 -0.160   -0.149  0.217  0.184    0.103 -0.148 -0.126
 H         -0.168 -0.438  0.548   -0.011 -0.025  0.036    0.091  0.237 -0.296
 H          0.027  0.026  0.042    0.083  0.081  0.144   -0.017 -0.018 -0.029
 H          0.048 -0.073 -0.020   -0.090  0.144  0.036   -0.022  0.036  0.011
 H          0.016  0.035  0.007    0.068  0.162  0.030   -0.014 -0.035 -0.008
 H          0.031 -0.024 -0.052   -0.072  0.058  0.133   -0.016  0.015  0.030
 TransDip  -0.089  0.046 -0.049    0.008 -0.125 -0.098   -0.233 -0.028  0.015

 STANDARD THERMODYNAMIC QUANTITIES AT   298.15 K  AND     1.00 ATM

   This Molecule has  0 Imaginary Frequencies
   Zero point vibrational energy:       93.139 kcal/mol

   Atom    1 Element C  Has Mass   12.00000
   Atom    2 Element C  Has Mass   12.00000
   Atom    3 Element C  Has Mass   12.00000
   Atom    4 Element C  Has Mass   12.00000
   Atom    5 Element C  Has Mass   12.00000
   Atom    6 Element C  Has Mass   12.00000
   Atom    7 Element H  Has Mass    1.00783
   Atom    8 Element H  Has Mass    1.00783
   Atom    9 Element H  Has Mass    1.00783
   Atom   10 Element H  Has Mass    1.00783
   Atom   11 Element H  Has Mass    1.00783
   Atom   12 Element H  Has Mass    1.00783
   Atom   13 Element H  Has Mass    1.00783
   Atom   14 Element H  Has Mass    1.00783
   Atom   15 Element H  Has Mass    1.00783
   Atom   16 Element H  Has Mass    1.00783
   Molecular Mass:    82.078300 amu
   Principal axes and moments of inertia in amu*Bohr^2:
                             1           2           3
    Eigenvalues --      338.18504   402.85248   448.68909
          X               0.99521     0.08811    -0.04227
          Y               0.08741    -0.60913     0.78824
          Z              -0.04370     0.78816     0.61391
   Rotational Symmetry Number is   1
   The Molecule is an Asymmetric Top
   Translational Enthalpy:        0.889 kcal/mol
   Rotational Enthalpy:           0.889 kcal/mol
   Vibrational Enthalpy:         94.286 kcal/mol
   gas constant (RT):             0.592 kcal/mol
   Translational Entropy:        39.129  cal/mol.K
   Rotational Entropy:           25.616  cal/mol.K
   Vibrational Entropy:           5.243  cal/mol.K

   Total Enthalpy:               96.656 kcal/mol
   Total Entropy:                69.988  cal/mol.K
Archival summary:
1\1\nid00496\FREQ\ProcedureUnspecified\BasisUnspecified\610\cgrambow\MonFeb1116:01:022019MonFeb1116:01:022019\0\\#,FREQ,ProcedureUnspecified,BasisUnspecified,\\0,1\C\H,1,1.08895\C,1,1.53269,2,117.312\H,3,1.09147,1,112.149,2,60.9324,0\H,3,1.09151,1,112.222,2,-60.734,0\C,1,1.54595,2,121.81,3,-126.491,0\H,6,1.0902,1,112.62,2,-49.1102,0\H,6,1.09261,1,118.134,2,81.4951,0\C,1,1.54605,2,121.915,3,126.606,0\H,9,1.09019,1,112.607,2,49.0142,0\H,9,1.09264,1,118.171,2,-81.6004,0\C,9,1.54617,1,82.549,2,160.448,0\H,12,1.08892,9,121.889,1,-160.445,0\C,12,1.53277,9,101.977,1,66.331,0\H,14,1.09145,12,112.124,9,-163.266,0\H,14,1.09151,12,112.219,9,75.0513,0\\\@

 Total job time:  3060.59s(wall), 10805.80s(cpu) 
 Mon Feb 11 16:01:02 2019

        *************************************************************
        *                                                           *
        *  Thank you very much for using Q-Chem.  Have a nice day.  *
        *                                                           *
        *************************************************************


remove work dirs /tmp/qchem30744.0 -- /tmp/qchem30744.0
rm -rf /tmp/qchem30744.0
rm -rf /tmp/qchem30744
