
Running Job 1 of 3 ts_optfreq0080.in
qchem ts_optfreq0080.in_61884.0 /tmp/qchem61884/ 1
/global/common/cori/software/qchem/5.1/exe/qcprog.exe ts_optfreq0080.in_61884.0 /tmp/qchem61884/
Check license passed

                  Welcome to Q-Chem
     A Quantum Leap Into The Future Of Chemistry


 Q-Chem 5.1, Q-Chem, Inc., Pleasanton, CA (2018)

 Yihan Shao,  Zhengting Gan,  E. Epifanovsky,  A. T. B. Gilbert,  M. Wormit,  
 J. Kussmann,  A. W. Lange,  A. Behn,  Jia Deng,  Xintian Feng,  D. Ghosh,  
 M. Goldey,  P. R. Horn,  L. D. Jacobson,  I. Kaliman,  T. Kus,  A. Landau,  
 Jie Liu,  E. I. Proynov,  R. M. Richard,  R. P. Steele,  E. J. Sundstrom,  
 H. L. Woodcock III,  P. M. Zimmerman,  D. Zuev,  B. Albrecht,  E. Alguire,  
 S. A. Baeppler,  D. Barton,  Z. Benda,  Y. A. Bernard,  E. J. Berquist,  
 K. B. Bravaya,  H. Burton,  D. Casanova,  Chun-Min Chang,  Yunqing Chen,  
 A. Chien,  K. D. Closser,  M. P. Coons,  S. Coriani,  S. Dasgupta,  
 A. L. Dempwolff,  M. Diedenhofen,  Hainam Do,  R. G. Edgar,  Po-Tung Fang,  
 S. Faraji,  S. Fatehi,  Qingguo Feng,  K. D. Fenk,  J. Fosso-Tande,  
 Qinghui Ge,  A. Ghysels,  G. Gidofalvi,  J. Gomes,  J. Gonthier,  A. Gunina,  
 D. Hait,  M. W. D. Hanson-Heine,  P. H. P. Harbach,  A. W. Hauser,  
 J. E. Herr,  E. G. Hohenstein,  Z. C. Holden,  Kerwin Hui,  B. C. Huynh,  
 T.-C. Jagau,  Hyunjun Ji,  B. Kaduk,  K. Khistyaev,  Jaehoon Kim,  
 P. Klunzinger,  K. Koh,  D. Kosenkov,  L. Koulias,  T. Kowalczyk,  
 C. M. Krauter,  A. Kunitsa,  Ka Un Lao,  A. Laurent,  K. V. Lawler,  
 Joonho Lee,  D. Lefrancois,  S. Lehtola,  D. S. Levine,  Yi-Pei Li,  
 You-Sheng Lin,  Fenglai Liu,  E. Livshits,  A. Luenser,  P. Manohar,  
 E. Mansoor,  S. F. Manzer,  Shan-Ping Mao,  Yuezhi Mao,  N. Mardirossian,  
 A. V. Marenich,  T. Markovich,  L. A. Martinez-Martinez,  S. A. Maurer,  
 N. J. Mayhall,  S. C. McKenzie,  J.-M. Mewes,  A. F. Morrison,  
 J. W. Mullinax,  K. Nanda,  T. S. Nguyen-Beck,  R. Olivares-Amaya,  
 J. A. Parkhill,  T. M. Perrine,  F. Plasser,  P. Pokhilko,  S. Prager,  
 A. Prociuk,  E. Ramos,  D. R. Rehn,  F. Rob,  M. Schneider,  N. Sergueev,  
 S. M. Sharada,  S. Sharma,  D. W. Small,  T. Stauch,  T. Stein,  
 Yu-Chuan Su,  A. J. W. Thom,  A. Tkatchenko,  T. Tsuchimochi,  N. M. Tubman,  
 L. Vogt,  M. L. Vidal,  O. Vydrov,  M. A. Watson,  J. Wenzel,  
 M. de Wergifosse,  T. A. Wesolowski,  A. White,  J. Witte,  A. Yamada,  
 Jun Yang,  K. Yao,  S. Yeganeh,  S. R. Yost,  Zhi-Qiang You,  A. Zech,  
 Igor Ying Zhang,  Xing Zhang,  Yan Zhao,  Ying Zhu,  B. R. Brooks,  
 G. K. L. Chan,  C. J. Cramer,  M. S. Gordon,  W. J. Hehre,  A. Klamt,  
 M. W. Schmidt,  C. D. Sherrill,  D. G. Truhlar,  A. Aspuru-Guzik,  R. Baer,  
 A. T. Bell,  N. A. Besley,  Jeng-Da Chai,  R. A. DiStasio Jr.,  A. Dreuw,  
 B. D. Dunietz,  T. R. Furlani,  Chao-Ping Hsu,  Yousung Jung,  Jing Kong,  
 D. S. Lambrecht,  WanZhen Liang,  C. Ochsenfeld,  V. A. Rassolov,  
 L. V. Slipchenko,  J. E. Subotnik,  T. Van Voorhis,  J. M. Herbert,  
 A. I. Krylov,  P. M. W. Gill,  M. Head-Gordon

 Contributors to earlier versions of Q-Chem not listed above: 
 R. D. Adamson,  B. Austin,  J. Baker,  G. J. O. Beran,  K. Brandhorst,  
 S. T. Brown,  E. F. C. Byrd,  A. K. Chakraborty,  C.-L. Cheng,  
 Siu Hung Chien,  D. M. Chipman,  D. L. Crittenden,  H. Dachsel,  
 R. J. Doerksen,  A. D. Dutoi,  L. Fusti-Molnar,  W. A. Goddard III,  
 A. Golubeva-Zadorozhnaya,  S. R. Gwaltney,  G. Hawkins,  A. Heyden,  
 S. Hirata,  G. Kedziora,  F. J. Keil,  C. Kelley,  Jihan Kim,  R. A. King,  
 R. Z. Khaliullin,  P. P. Korambath,  W. Kurlancheek,  A. M. Lee,  M. S. Lee,  
 S. V. Levchenko,  Ching Yeh Lin,  D. Liotard,  R. C. Lochan,  I. Lotan,  
 P. E. Maslen,  N. Nair,  D. P. O'Neill,  D. Neuhauser,  E. Neuscamman,  
 C. M. Oana,  R. Olson,  B. Peters,  R. Peverati,  P. A. Pieniazek,  
 Y. M. Rhee,  J. Ritchie,  M. A. Rohrdanz,  E. Rosta,  N. J. Russ,  
 H. F. Schaefer III,  N. E. Schultz,  N. Shenvi,  A. C. Simmonett,  A. Sodt,  
 D. Stuck,  K. S. Thanthiriwatte,  V. Vanovschi,  Tao Wang,  A. Warshel,  
 C. F. Williams,  Q. Wu,  X. Xu,  W. Zhang

 Please cite Q-Chem as follows:
 Y. Shao et al., Mol. Phys. 113, 184-215 (2015)
 DOI: 10.1080/00268976.2014.952696

 Q-Chem 5.1.0 for Intel X86 EM64T Linux

 Parts of Q-Chem use Armadillo 8.300.2 (Tropical Shenanigans).
 http://arma.sourceforge.net/

 Q-Chem begins on Tue Feb 19 11:37:01 2019  

Host: cori01
0

     Scratch files written to /tmp/qchem61884//
 Jun2518 |scratch|qcdevops|jenkins|workspace|build_RNUM -1
Processing $rem in /global/common/cori/software/qchem/5.1/config/preferences.
 MEM_TOTAL  96000 

Checking the input file for inconsistencies... 	...done.

--------------------------------------------------------------
User input:
--------------------------------------------------------------
$molecule
0 1
C   0.8657677768  -0.7705004741  -0.7729104273
C   0.5052968637  -0.4842856902   0.6948107229
C   0.9462322577   0.9960042316   0.6735636071
C   0.1183818773   0.5002777931  -1.2949100519
C  -1.2690502430   0.2704382972  -0.6897018045
C  -1.0362401749  -0.5002670527   0.6556124750
H   0.4328005200  -1.6942116526  -1.1863431942
H   1.9436107626  -0.7524435880  -0.9828855716
H   0.9464180823  -1.0885306747   1.5045391383
H   2.0343852634   1.1311770559   0.6514074488
H   0.4442218144   1.6933861926   1.3552059449
H   0.7045427675   1.4168273309  -0.5209352958
H  -1.8064564194  -0.3475128396  -1.4287157247
H  -1.8435158088   1.1977709383  -0.5713946269
H  -1.4196012384  -1.5302885360   0.6390262586
H  -1.4869831012   0.0137266684   1.5158091012
$end

$rem
JOBTYPE                   FREQ
METHOD                    wB97X-D3
BASIS                     def2-TZVP
UNRESTRICTED              TRUE
SCF_ALGORITHM             DIIS
MAX_SCF_CYCLES            100
SCF_CONVERGENCE           8
SYM_IGNORE                TRUE
SYMMETRY                  FALSE
WAVEFUNCTION_ANALYSIS     FALSE
$end

--------------------------------------------------------------
 Adding empirical dispersion correction 
 ----------------------------------------------------------------
 Doing -D3(0) with
 s6  =   1.00000
 s8  =   1.00000
 rs6 =   1.28100
 rs8 =   1.09400
 -D3 energy without 3body term =     -0.0040710388 hartrees
 ----------------------------------------------------------------
             Standard Nuclear Orientation (Angstroms)
    I     Atom           X                Y                Z
 ----------------------------------------------------------------
    1      C       0.8657677768    -0.7705004741    -0.7729104273
    2      C       0.5052968637    -0.4842856902     0.6948107229
    3      C       0.9462322577     0.9960042316     0.6735636071
    4      C       0.1183818773     0.5002777931    -1.2949100519
    5      C      -1.2690502430     0.2704382972    -0.6897018045
    6      C      -1.0362401749    -0.5002670527     0.6556124750
    7      H       0.4328005200    -1.6942116526    -1.1863431942
    8      H       1.9436107626    -0.7524435880    -0.9828855716
    9      H       0.9464180823    -1.0885306747     1.5045391383
   10      H       2.0343852634     1.1311770559     0.6514074488
   11      H       0.4442218144     1.6933861926     1.3552059449
   12      H       0.7045427675     1.4168273309    -0.5209352958
   13      H      -1.8064564194    -0.3475128396    -1.4287157247
   14      H      -1.8435158088     1.1977709383    -0.5713946269
   15      H      -1.4196012384    -1.5302885360     0.6390262586
   16      H      -1.4869831012     0.0137266684     1.5158091012
 ----------------------------------------------------------------
 Nuclear Repulsion Energy =   243.1515492293 hartrees
 There are       23 alpha and       23 beta electrons
 Requested basis set is def2-TZVP
 There are 106 shells and 246 basis functions

 Total QAlloc Memory Limit  96000 MB
 Mega-Array Size       188 MB
 MEM_STATIC part       192 MB
 A cutoff of  1.0D-11 yielded   5517 shell pairs
 There are     30425 function pairs (     38472 Cartesian)
 
 -------------------------------------------------------
 OpenMP Integral Computing Module                       
 Release: version 1.0, May 2013, Q-Chem Inc. Pittsburgh 
 -------------------------------------------------------
 Integral Job Info:
 Integral job number is                      11
 Integral operator is                         1
 short-range coefficients              19572800
 long-range coefficients              100000000
 Omega coefficients                         250
 if combine SR and LR in K                    1
 Integral screening is                        0
 Integral computing path is                   2
 max size of driver memory is            800000
 size of driver memory is                776718
 size of scratch memory is              4473992
 max col of scratch BK array              10000
 max len of scratch array in speh3          662
 max len of scratch index in speh4           32
 max int batch size is                      520
 min int batch size is                       52
 fixed nKL is                                52
 max L of basis functions is                  3
 order of int derivative is                   0
 number of shells is                        106
 number of basis is                         276
 number of cartesian basis is               276
 number of contracted shell pairs          5517
 number of primitive shell pairs          12680
 maxK2 (contraction) of shell pair           36
 max number of K2 of shell pair               1
 max number of CS2 of shell pair            883
 max number of PS2 of shell pair           1614
 mem total for path MDJ                  587568
 -------------------------------------------------------
 Smallest overlap matrix eigenvalue = 6.30E-05
 Guess from superposition of atomic densities
 Warning:  Energy on first SCF cycle will be non-variational
 SAD guess density has 46.000000 electrons

 -----------------------------------------------------------------------
  General SCF calculation program by
  Eric Jon Sundstrom, Paul Horn, Yuezhi Mao, Dmitri Zuev, Alec White,
  David Stuck, Shaama M.S., Shane Yost, Joonho Lee, David Small,
  Daniel Levine, Susi Lehtola, Hugh Burton, Evgeny Epifanovsky
 -----------------------------------------------------------------------
 Exchange:     0.1957 Hartree-Fock + 1.0000 wB97X-D3 + LR-HF
 Correlation:  1.0000 wB97X-D3
 Using SG-2 standard quadrature grid
 Dispersion:   Grimme D3
 using 16 threads for integral computing
 -------------------------------------------------------
 OpenMP Integral computing Module                
 Release: version 1.0, May 2013, Q-Chem Inc. Pittsburgh 
 -------------------------------------------------------
 using 16 threads for integral computing
 -------------------------------------------------------
 OpenMP Integral computing Module                
 Release: version 1.0, May 2013, Q-Chem Inc. Pittsburgh 
 -------------------------------------------------------
 -------------------------------------------------------
 OpenMP BLAS3 based DFT computing Module                
 Release: version 1.0, May 2013, Q-Chem Inc. Pittsburgh 
 -------------------------------------------------------
 A unrestricted SCF calculation will be
 performed using DIIS
 SCF converges when DIIS error is below 1.0e-08
 ---------------------------------------
  Cycle       Energy         DIIS error
 ---------------------------------------
    1    -236.3187115591      1.68e-02  
    2    -234.4639262109      1.20e-03  
    3    -234.4886160429      9.23e-04  
    4    -234.5136654207      1.31e-04  
    5    -234.5142555015      4.54e-05  
    6    -234.5143250233      1.97e-05  
    7    -234.5143401009      4.83e-06  
    8    -234.5143415660      1.56e-06  
    9    -234.5143416999      5.26e-07  
   10    -234.5143417156      1.12e-07  
   11    -234.5143417166      3.22e-08  
   12    -234.5143417167      1.44e-08  
   13    -234.5143417167      7.23e-09  Convergence criterion met
 ---------------------------------------
 SCF time:   CPU 878.08s  wall 57.00s 
<S^2> =          0.000000000
 SCF   energy in the final basis set =     -234.5143417167
 Total energy in the final basis set =     -234.5143417167
 No wavefunction analysis requested
 Calculating MO derivatives via CPSCF
 D1JvT checksum  = 2383296 66117.4516933342
 D1KAT checksum  = 4753152 5671.6635364081
 D1JvT checksum  = 2383296 44949.2576216639
 D1KAT checksum  = 4753152 2674.5058083306
   1         3          48      0.237202    0.029274
   2         3          48      0.045479    0.008903
   3         3          48      0.007932    0.002161
   4         3          48      0.001174    0.000353
   5        27          24      0.000130    0.000046
   6        48           3      0.000008    0.000005
   7        51           0      0.000000    0.000000    Roots Converged
 Time for AOints: 598.9 s (CPU) 39.9 s (wall)
 ------------------------------------------------------------------------------
                     AOints        : Timing summary (seconds)
 ------------------------------------------------------------------------------
     job step          cpu (% of tot)      sys (% of tot)     wall (% of tot)
 ------------------------------------------------------------------------------
  cpscf_lag         0.4178E+04 (42.5)   0.9245E-02 (68.0)   0.9061E+03 (43.2)
  iterzp            0.5059E+04 (51.4)   0.3704E-02 (27.2)   0.1149E+04 (54.8)
  make_fx           0.0000E+00 ( 0.0)   0.0000E+00 ( 0.0)   0.0000E+00 ( 0.0)
  AOints            0.5989E+03 ( 6.1)   0.6350E-03 ( 4.7)   0.3991E+02 ( 1.9)
 ------------------------------------------------------------------------------
   Grand Totals     0.9837E+04          0.1359E-01          0.2095E+04
 ------------------------------------------------------------------------------
 Calculating analytic Hessian of the SCF energy
 Polarizability Matrix (a.u.)
            1           2           3
    1 -72.0725935  -2.3561661  -4.7927103
    2  -2.3561661 -66.1029110  -2.9242621
    3  -4.7927103  -2.9242621 -76.7481151
 Running MAKENN_D3_FD2ND
 
 Direct stationary perturbation theory relativistic correction:
 
 rels  =       0.053164746716
 relv  =      -0.259771001631
 rel2e =       0.000000000000
 E_rel =      -0.206606254915
 
 Hessian of the SCF Energy
            1           2           3           4           5           6
    1   0.6057725   0.0459259  -0.0330145  -0.0804457   0.0015639   0.0166873
    2   0.0459259   0.5019501   0.0968700   0.0050537  -0.0638003  -0.0210274
    3  -0.0330145   0.0968700   0.3991532   0.0199209  -0.0292434  -0.1662221
    4  -0.0804457   0.0050537   0.0199209   0.4674797  -0.0367958   0.0683723
    5   0.0015639  -0.0638003  -0.0292434  -0.0367958   0.4750875  -0.0934184
    6   0.0166873  -0.0210274  -0.1662221   0.0683723  -0.0934184   0.5466134
    7   0.0060939   0.0114039   0.0061851  -0.0820236  -0.0231199   0.0003748
    8  -0.0026624  -0.0360647  -0.0155380  -0.0245900  -0.1717792   0.0033521
    9  -0.0083476  -0.0319783  -0.0187632   0.0007992   0.0067373  -0.0587468
   10  -0.0841844   0.0366060  -0.0240984  -0.0003110   0.0122936  -0.0121459
   11   0.0141061  -0.1097704   0.0471308  -0.0001947  -0.0131001   0.0184714
   12  -0.0101673   0.0220647  -0.0521349  -0.0133433   0.0356445  -0.0435707
   13  -0.0333934   0.0045661   0.0029550  -0.0179600   0.0152852  -0.0267563
   14   0.0352395  -0.0027665  -0.0037499   0.0110647  -0.0063677   0.0046229
   15   0.0031006  -0.0007134  -0.0016615  -0.0191652   0.0106671  -0.0147238
   16  -0.0232087  -0.0020012   0.0134750  -0.1697895  -0.0052024  -0.0010598
   17   0.0167022   0.0015902  -0.0082618  -0.0007356  -0.0730672  -0.0006747
   18   0.0302106   0.0021995  -0.0103028  -0.0028453  -0.0008294  -0.0710708
   19  -0.0933807  -0.0838403  -0.0365792   0.0002029   0.0056171   0.0016419
   20  -0.0832779  -0.2258259  -0.0776473   0.0004350  -0.0015105   0.0004122
   21  -0.0351748  -0.0724385  -0.0809104  -0.0120083  -0.0256114  -0.0055383
   22  -0.2939862  -0.0094019   0.0479839  -0.0035037  -0.0008663  -0.0011677
   23  -0.0115041  -0.0488970  -0.0025126   0.0004210  -0.0011715   0.0011324
   24   0.0465226  -0.0025744  -0.0591766   0.0300721   0.0015769  -0.0026814
   25   0.0040558  -0.0066988   0.0050536  -0.0912762   0.0550858  -0.0708834
   26  -0.0052121   0.0053331  -0.0042711   0.0551188  -0.1249606   0.0927508
   27  -0.0129650   0.0135025  -0.0093549  -0.0726985   0.0924575  -0.1818419
   28   0.0003920   0.0003174   0.0003161  -0.0056884   0.0015776   0.0001654
   29  -0.0010237  -0.0002707   0.0012879  -0.0294387  -0.0001017  -0.0020117
   30  -0.0014323   0.0015236  -0.0006923   0.0055461   0.0009207  -0.0002920
   31  -0.0004242  -0.0034122   0.0000249   0.0029064  -0.0066074  -0.0062003
   32  -0.0027501  -0.0063312  -0.0012799   0.0130884  -0.0086555  -0.0188280
   33   0.0000125  -0.0034261   0.0026001  -0.0031694  -0.0013848   0.0026881
   34   0.0037350   0.0043715  -0.0019413   0.0004656  -0.0019811   0.0053719
   35  -0.0067385  -0.0163605  -0.0035279   0.0057849  -0.0091591   0.0126602
   36   0.0025415  -0.0054793  -0.0041609   0.0007697  -0.0003045  -0.0013044
   37   0.0013459  -0.0004396  -0.0013170  -0.0005662  -0.0000024  -0.0004996
   38   0.0005323  -0.0005275  -0.0001954   0.0007506  -0.0007159   0.0022304
   39  -0.0004481  -0.0007404   0.0002485   0.0000972   0.0016168  -0.0028932
   40  -0.0068094  -0.0011414   0.0028561  -0.0001743   0.0001536   0.0001214
   41  -0.0016076   0.0009022   0.0003720  -0.0003579  -0.0006901   0.0006524
   42   0.0030441   0.0014977  -0.0001001   0.0001853   0.0022924  -0.0025769
   43   0.0017773  -0.0009524  -0.0015474  -0.0093164  -0.0312841  -0.0005154
   44   0.0001513   0.0008088  -0.0002510   0.0013498   0.0014489   0.0000491
   45   0.0005292   0.0006497   0.0012502  -0.0005445  -0.0038223  -0.0014994
   46  -0.0073399  -0.0003567  -0.0002728  -0.0099996   0.0142827   0.0264933
   47   0.0005553   0.0000302   0.0008178  -0.0009541  -0.0014571  -0.0003737
   48  -0.0010987   0.0000701   0.0002277  -0.0019884   0.0027010   0.0036603
            7           8           9          10          11          12
    1   0.0060939  -0.0026624  -0.0083476  -0.0841844   0.0141061  -0.0101673
    2   0.0114039  -0.0360647  -0.0319783   0.0366060  -0.1097704   0.0220647
    3   0.0061851  -0.0155380  -0.0187632  -0.0240984   0.0471308  -0.0521349
    4  -0.0820236  -0.0245900   0.0007992  -0.0003110  -0.0001947  -0.0133433
    5  -0.0231199  -0.1717792   0.0067373   0.0122936  -0.0131001   0.0356445
    6   0.0003748   0.0033521  -0.0587468  -0.0121459   0.0184714  -0.0435707
    7   0.5664103  -0.0148833  -0.0848399  -0.0054645   0.0068668   0.0129420
    8  -0.0148833   0.4454643   0.1142761   0.0200731   0.0360618   0.0307210
    9  -0.0848399   0.1142761   0.3525194  -0.0167966  -0.0379232  -0.0534373
   10  -0.0054645   0.0200731  -0.0167966   0.2704760  -0.0234743  -0.0532429
   11   0.0068668   0.0360618  -0.0379232  -0.0234743   0.2277968  -0.0885642
   12   0.0129420   0.0307210  -0.0534373  -0.0532429  -0.0885642   0.1717360
   13  -0.0107927  -0.0014172   0.0018344  -0.1341028   0.0044557   0.0357746
   14  -0.0085853   0.0025782   0.0008809  -0.0162244  -0.0720419   0.0059600
   15  -0.0090199  -0.0035496   0.0116507   0.0692587   0.0137292  -0.0681279
   16  -0.0194596  -0.0062551   0.0016172  -0.0024292  -0.0135871   0.0185666
   17  -0.0353695  -0.0081661   0.0051060  -0.0124340  -0.0053807   0.0157135
   18  -0.0063191  -0.0001941   0.0014533   0.0181667   0.0110849  -0.0217829
   19   0.0001833   0.0022255   0.0008912   0.0046256   0.0066582   0.0046478
   20   0.0010621  -0.0003865  -0.0007861  -0.0099950  -0.0149840  -0.0081643
   21   0.0023256  -0.0022507  -0.0067676   0.0055444   0.0062495   0.0017005
   22   0.0004575  -0.0003182  -0.0007828  -0.0102562  -0.0018298   0.0017012
   23   0.0010067  -0.0003282  -0.0001406   0.0223874   0.0019204  -0.0050436
   24   0.0004768   0.0018382   0.0006685  -0.0136512  -0.0035228   0.0025949
   25   0.0034305  -0.0066367   0.0086733  -0.0008636  -0.0002215   0.0033488
   26   0.0111841  -0.0129026   0.0202395   0.0010761   0.0014149   0.0036280
   27   0.0027423   0.0026532   0.0008650  -0.0013587   0.0019262  -0.0065546
   28  -0.3118360  -0.0308873   0.0089080   0.0009272   0.0016245   0.0020336
   29  -0.0282012  -0.0505875  -0.0070866  -0.0002335  -0.0018810  -0.0004286
   30   0.0052841  -0.0092128  -0.0398130   0.0024468   0.0070661   0.0101206
   31  -0.1090657   0.0752750   0.0773539   0.0030380   0.0023185   0.0015466
   32   0.0763951  -0.1522249  -0.1026436  -0.0015451  -0.0025969   0.0017467
   33   0.0804543  -0.1054201  -0.1492626   0.0045980   0.0051168   0.0001786
   34  -0.0310422  -0.0123492   0.0064386  -0.0157514  -0.0063352   0.0097411
   35   0.0033299  -0.0528568   0.0312689  -0.0202955  -0.0482195  -0.0136598
   36  -0.0118006  -0.0194327  -0.0392633   0.0212035   0.0254168   0.0635167
   37  -0.0023415  -0.0004443   0.0034018  -0.0096449  -0.0139407  -0.0151075
   38  -0.0001766  -0.0007004   0.0021739  -0.0035510  -0.0039646  -0.0034609
   39   0.0024659   0.0020981  -0.0018800  -0.0012967   0.0030547   0.0031348
   40   0.0003340   0.0001932  -0.0004212  -0.0138896   0.0229666   0.0017289
   41   0.0000686  -0.0000955  -0.0001821  -0.0045302   0.0070479   0.0006522
   42  -0.0001903   0.0002979   0.0004215   0.0014231  -0.0129160  -0.0027054
   43  -0.0068211   0.0010951   0.0003472  -0.0008352  -0.0001462   0.0002934
   44  -0.0001700   0.0008786  -0.0005257  -0.0002870  -0.0011151   0.0014203
   45  -0.0012224   0.0001278  -0.0002250   0.0004744   0.0023025  -0.0031043
   46   0.0019374   0.0015817   0.0009233  -0.0013340   0.0007329  -0.0004635
   47  -0.0008114   0.0011095   0.0005837   0.0001339  -0.0011875   0.0017705
   48   0.0001412   0.0002335   0.0005805  -0.0005253   0.0013771  -0.0015641
           13          14          15          16          17          18
    1  -0.0333934   0.0352395   0.0031006  -0.0232087   0.0167022   0.0302106
    2   0.0045661  -0.0027665  -0.0007134  -0.0020012   0.0015902   0.0021995
    3   0.0029550  -0.0037499  -0.0016615   0.0134750  -0.0082618  -0.0103028
    4  -0.0179600   0.0110647  -0.0191652  -0.1697895  -0.0007356  -0.0028453
    5   0.0152852  -0.0063677   0.0106671  -0.0052024  -0.0730672  -0.0008294
    6  -0.0267563   0.0046229  -0.0147238  -0.0010598  -0.0006747  -0.0710708
    7  -0.0107927  -0.0085853  -0.0090199  -0.0194596  -0.0353695  -0.0063191
    8  -0.0014172   0.0025782  -0.0035496  -0.0062551  -0.0081661  -0.0001941
    9   0.0018344   0.0008809   0.0116507   0.0016172   0.0051060   0.0014533
   10  -0.1341028  -0.0162244   0.0692587  -0.0024292  -0.0124340   0.0181667
   11   0.0044557  -0.0720419   0.0137292  -0.0135871  -0.0053807   0.0110849
   12   0.0357746   0.0059600  -0.0681279   0.0185666   0.0157135  -0.0217829
   13   0.4953167  -0.0686393   0.0512411  -0.0696568   0.0121910  -0.0136620
   14  -0.0686393   0.5427363   0.0738060   0.0083650  -0.0949525   0.0237723
   15   0.0512411   0.0738060   0.4317692  -0.0086073   0.0236923  -0.1239243
   16  -0.0696568   0.0083650  -0.0086073   0.4580166   0.0387983  -0.0846847
   17   0.0121910  -0.0949525   0.0236923   0.0387983   0.5680763   0.0627354
   18  -0.0136620   0.0237723  -0.1239243  -0.0846847   0.0627354   0.4933370
   19   0.0001880   0.0001792  -0.0003371   0.0011206   0.0007440   0.0005181
   20  -0.0012926   0.0008641  -0.0006008  -0.0001304   0.0005494  -0.0004215
   21   0.0007519  -0.0002573   0.0008668  -0.0015107  -0.0002398   0.0013802
   22  -0.0009341   0.0034043   0.0002495   0.0003666   0.0008776   0.0003446
   23   0.0037040  -0.0044014  -0.0001703   0.0005296  -0.0007588   0.0011712
   24  -0.0017556   0.0037298  -0.0007513   0.0012962  -0.0026085  -0.0058290
   25  -0.0040909   0.0010475  -0.0019299  -0.0063877   0.0156660  -0.0213696
   26  -0.0018063   0.0009381   0.0001382  -0.0016145   0.0008561  -0.0025757
   27   0.0011077  -0.0001463  -0.0007419   0.0024112  -0.0018468   0.0017820
   28   0.0000591  -0.0004149  -0.0001324   0.0003524  -0.0019252  -0.0002743
   29   0.0008982  -0.0003463   0.0016185  -0.0007788  -0.0063080  -0.0008248
   30  -0.0018325  -0.0018418  -0.0032496  -0.0000787   0.0014653  -0.0009136
   31   0.0007351   0.0003634   0.0002446   0.0016547  -0.0003877  -0.0003103
   32  -0.0007718  -0.0003200  -0.0007048   0.0019833   0.0012762  -0.0007340
   33   0.0007624   0.0002521   0.0014959  -0.0003550   0.0002335   0.0012391
   34  -0.0098076  -0.0128263  -0.0085356  -0.0003640  -0.0004230   0.0002762
   35  -0.0028498  -0.0025517  -0.0064347   0.0008142   0.0000250   0.0000829
   36  -0.0069978   0.0017312  -0.0146408   0.0031498  -0.0010214  -0.0004634
   37  -0.1078229  -0.0704180  -0.0840171  -0.0008018  -0.0004410   0.0002941
   38  -0.0686595  -0.1249570  -0.0976205   0.0091633   0.0075525   0.0118848
   39  -0.0770421  -0.0939542  -0.1493085  -0.0115399  -0.0134261  -0.0157954
   40  -0.1124266   0.1128464   0.0150082  -0.0011963   0.0002069   0.0013435
   41   0.1140759  -0.2357609  -0.0248112   0.0040901  -0.0097405  -0.0030432
   42   0.0155144  -0.0247653  -0.0530602  -0.0124809   0.0222078   0.0031913
   43   0.0016515   0.0083396   0.0001665  -0.0783104  -0.0795174  -0.0002468
   44  -0.0024272  -0.0096419  -0.0020782  -0.0819527  -0.2727191  -0.0079786
   45   0.0083470   0.0226733   0.0013336  -0.0006438  -0.0075253  -0.0493192
   46   0.0030374  -0.0037414  -0.0075249  -0.0899070   0.0460473   0.0785584
   47  -0.0073126   0.0069911   0.0130322   0.0477785  -0.1088328  -0.0963297
   48   0.0097576  -0.0127138  -0.0169264   0.0804447  -0.0955496  -0.2029814
           19          20          21          22          23          24
    1  -0.0933807  -0.0832779  -0.0351748  -0.2939862  -0.0115041   0.0465226
    2  -0.0838403  -0.2258259  -0.0724385  -0.0094019  -0.0488970  -0.0025744
    3  -0.0365792  -0.0776473  -0.0809104   0.0479839  -0.0025126  -0.0591766
    4   0.0002029   0.0004350  -0.0120083  -0.0035037   0.0004210   0.0300721
    5   0.0056171  -0.0015105  -0.0256114  -0.0008663  -0.0011715   0.0015769
    6   0.0016419   0.0004122  -0.0055383  -0.0011677   0.0011324  -0.0026814
    7   0.0001833   0.0010621   0.0023256   0.0004575   0.0010067   0.0004768
    8   0.0022255  -0.0003865  -0.0022507  -0.0003182  -0.0003282   0.0018382
    9   0.0008912  -0.0007861  -0.0067676  -0.0007828  -0.0001406   0.0006685
   10   0.0046256  -0.0099950   0.0055444  -0.0102562   0.0223874  -0.0136512
   11   0.0066582  -0.0149840   0.0062495  -0.0018298   0.0019204  -0.0035228
   12   0.0046478  -0.0081643   0.0017005   0.0017012  -0.0050436   0.0025949
   13   0.0001880  -0.0012926   0.0007519  -0.0009341   0.0037040  -0.0017556
   14   0.0001792   0.0008641  -0.0002573   0.0034043  -0.0044014   0.0037298
   15  -0.0003371  -0.0006008   0.0008668   0.0002495  -0.0001703  -0.0007513
   16   0.0011206  -0.0001304  -0.0015107   0.0003666   0.0005296   0.0012962
   17   0.0007440   0.0005494  -0.0002398   0.0008776  -0.0007588  -0.0026085
   18   0.0005181  -0.0004215   0.0013802   0.0003446   0.0011712  -0.0058290
   19   0.0962987   0.0913432   0.0381484  -0.0104308  -0.0253586  -0.0113867
   20   0.0913432   0.2425233   0.0875447   0.0001163   0.0004039   0.0003330
   21   0.0381484   0.0875447   0.0853552   0.0020594   0.0054037   0.0022642
   22  -0.0104308   0.0001163   0.0020594   0.3181706   0.0072988  -0.0521248
   23  -0.0253586   0.0004039   0.0054037   0.0072988   0.0515009   0.0012629
   24  -0.0113867   0.0003330   0.0022642  -0.0521248   0.0012629   0.0608551
   25  -0.0000175   0.0002171  -0.0004170   0.0000082  -0.0000542  -0.0005221
   26  -0.0002558   0.0000451   0.0003274   0.0000545   0.0000957   0.0006877
   27  -0.0002018  -0.0004726   0.0002233   0.0006536  -0.0000596   0.0003791
   28   0.0002432  -0.0001097   0.0000166   0.0004045  -0.0001404  -0.0004145
   29   0.0005434  -0.0000669   0.0000944   0.0004311  -0.0001449  -0.0006035
   30   0.0005141  -0.0000044   0.0001451   0.0001890  -0.0007872   0.0000027
   31   0.0010856  -0.0005397  -0.0006081   0.0003744  -0.0001842  -0.0002858
   32   0.0003083  -0.0002057  -0.0020099   0.0000484   0.0001148   0.0001548
   33   0.0005919  -0.0001888   0.0001701   0.0002169   0.0002136   0.0001437
   34  -0.0000923   0.0009999   0.0002536   0.0000358  -0.0000966   0.0003945
   35   0.0016618  -0.0020311   0.0020786   0.0002570   0.0005642  -0.0003653
   36   0.0014378  -0.0005659   0.0011884   0.0004234  -0.0002280   0.0005024
   37  -0.0004848   0.0007567   0.0000381   0.0003376   0.0001306   0.0004524
   38   0.0006439   0.0000037   0.0000463  -0.0000781   0.0000997   0.0001457
   39   0.0001427   0.0002385   0.0002590  -0.0000973   0.0002831   0.0000082
   40   0.0002842  -0.0000109   0.0000987  -0.0009070   0.0015766  -0.0010099
   41  -0.0001482   0.0003267   0.0000646  -0.0001089   0.0003760  -0.0000776
   42  -0.0001418   0.0004875  -0.0002862   0.0004458  -0.0004691   0.0007701
   43   0.0001311   0.0003624   0.0006737   0.0001022   0.0003152  -0.0002183
   44  -0.0002466   0.0000862   0.0005136   0.0000063   0.0002436   0.0001604
   45   0.0003039  -0.0002221   0.0000085  -0.0001295  -0.0000124  -0.0000955
   46   0.0000429   0.0000635  -0.0001916  -0.0002398  -0.0000316   0.0021545
   47  -0.0000751   0.0002082   0.0004848   0.0001088   0.0003824  -0.0001372
   48  -0.0001911   0.0000578  -0.0000586   0.0000348  -0.0000433   0.0003451
           25          26          27          28          29          30
    1   0.0040558  -0.0052121  -0.0129650   0.0003920  -0.0010237  -0.0014323
    2  -0.0066988   0.0053331   0.0135025   0.0003174  -0.0002707   0.0015236
    3   0.0050536  -0.0042711  -0.0093549   0.0003161   0.0012879  -0.0006923
    4  -0.0912762   0.0551188  -0.0726985  -0.0056884  -0.0294387   0.0055461
    5   0.0550858  -0.1249606   0.0924575   0.0015776  -0.0001017   0.0009207
    6  -0.0708834   0.0927508  -0.1818419   0.0001654  -0.0020117  -0.0002920
    7   0.0034305   0.0111841   0.0027423  -0.3118360  -0.0282012   0.0052841
    8  -0.0066367  -0.0129026   0.0026532  -0.0308873  -0.0505875  -0.0092128
    9   0.0086733   0.0202395   0.0008650   0.0089080  -0.0070866  -0.0398130
   10  -0.0008636   0.0010761  -0.0013587   0.0009272  -0.0002335   0.0024468
   11  -0.0002215   0.0014149   0.0019262   0.0016245  -0.0018810   0.0070661
   12   0.0033488   0.0036280  -0.0065546   0.0020336  -0.0004286   0.0101206
   13  -0.0040909  -0.0018063   0.0011077   0.0000591   0.0008982  -0.0018325
   14   0.0010475   0.0009381  -0.0001463  -0.0004149  -0.0003463  -0.0018418
   15  -0.0019299   0.0001382  -0.0007419  -0.0001324   0.0016185  -0.0032496
   16  -0.0063877  -0.0016145   0.0024112   0.0003524  -0.0007788  -0.0000787
   17   0.0156660   0.0008561  -0.0018468  -0.0019252  -0.0063080   0.0014653
   18  -0.0213696  -0.0025757   0.0017820  -0.0002743  -0.0008248  -0.0009136
   19  -0.0000175  -0.0002558  -0.0002018   0.0002432   0.0005434   0.0005141
   20   0.0002171   0.0000451  -0.0004726  -0.0001097  -0.0000669  -0.0000044
   21  -0.0004170   0.0003274   0.0002233   0.0000166   0.0000944   0.0001451
   22   0.0000082   0.0000545   0.0006536   0.0004045   0.0004311   0.0001890
   23  -0.0000542   0.0000957  -0.0000596  -0.0001404  -0.0001449  -0.0007872
   24  -0.0005221   0.0006877   0.0003791  -0.0004145  -0.0006035   0.0000027
   25   0.0946964  -0.0581377   0.0803566   0.0004722   0.0006042  -0.0001491
   26  -0.0581377   0.1307802  -0.1080937  -0.0002696   0.0012369  -0.0001592
   27   0.0803566  -0.1080937   0.1911006   0.0002957   0.0004657   0.0008632
   28   0.0004722  -0.0002696   0.0002957   0.3313309   0.0335801  -0.0063059
   29   0.0006042   0.0012369   0.0004657   0.0335801   0.0533907   0.0027932
   30  -0.0001491  -0.0001592   0.0008632  -0.0063059   0.0027932   0.0414240
   31   0.0000334   0.0002163   0.0002630  -0.0086488   0.0179019   0.0191190
   32   0.0001715  -0.0005779  -0.0000355  -0.0026405   0.0029947   0.0035172
   33  -0.0000570   0.0000648   0.0000716  -0.0017201   0.0017423   0.0022188
   34  -0.0006063  -0.0010324   0.0007338  -0.0077817   0.0075108  -0.0222296
   35  -0.0014860  -0.0025353  -0.0002874  -0.0006134   0.0017495  -0.0050573
   36  -0.0009350  -0.0023597   0.0031190  -0.0028278   0.0035027  -0.0120124
   37  -0.0003098  -0.0000587  -0.0002078  -0.0000532   0.0001866  -0.0011172
   38   0.0005032   0.0000112   0.0001097  -0.0001127   0.0001139  -0.0002973
   39  -0.0009619  -0.0000195  -0.0000094   0.0001057  -0.0002583   0.0010894
   40  -0.0002252  -0.0000172  -0.0000084   0.0001536  -0.0001388   0.0001204
   41   0.0003450   0.0000987  -0.0000647  -0.0000103   0.0001259   0.0000817
   42  -0.0009703  -0.0002638   0.0002263   0.0000514  -0.0001454   0.0001549
   43   0.0009372   0.0004552  -0.0006198  -0.0004848  -0.0020206   0.0004981
   44  -0.0008048   0.0002867  -0.0001021  -0.0001562   0.0001335  -0.0001893
   45   0.0000621  -0.0000976  -0.0000797  -0.0000935  -0.0003238   0.0007239
   46   0.0001435   0.0002994  -0.0005039   0.0001576   0.0001791  -0.0005722
   47   0.0003991  -0.0001202  -0.0000061   0.0001805  -0.0000381   0.0001813
   48   0.0007009   0.0000039  -0.0000478  -0.0001241   0.0001780   0.0002303
           31          32          33          34          35          36
    1  -0.0004242  -0.0027501   0.0000125   0.0037350  -0.0067385   0.0025415
    2  -0.0034122  -0.0063312  -0.0034261   0.0043715  -0.0163605  -0.0054793
    3   0.0000249  -0.0012799   0.0026001  -0.0019413  -0.0035279  -0.0041609
    4   0.0029064   0.0130884  -0.0031694   0.0004656   0.0057849   0.0007697
    5  -0.0066074  -0.0086555  -0.0013848  -0.0019811  -0.0091591  -0.0003045
    6  -0.0062003  -0.0188280   0.0026881   0.0053719   0.0126602  -0.0013044
    7  -0.1090657   0.0763951   0.0804543  -0.0310422   0.0033299  -0.0118006
    8   0.0752750  -0.1522249  -0.1054201  -0.0123492  -0.0528568  -0.0194327
    9   0.0773539  -0.1026436  -0.1492626   0.0064386   0.0312689  -0.0392633
   10   0.0030380  -0.0015451   0.0045980  -0.0157514  -0.0202955   0.0212035
   11   0.0023185  -0.0025969   0.0051168  -0.0063352  -0.0482195   0.0254168
   12   0.0015466   0.0017467   0.0001786   0.0097411  -0.0136598   0.0635167
   13   0.0007351  -0.0007718   0.0007624  -0.0098076  -0.0028498  -0.0069978
   14   0.0003634  -0.0003200   0.0002521  -0.0128263  -0.0025517   0.0017312
   15   0.0002446  -0.0007048   0.0014959  -0.0085356  -0.0064347  -0.0146408
   16   0.0016547   0.0019833  -0.0003550  -0.0003640   0.0008142   0.0031498
   17  -0.0003877   0.0012762   0.0002335  -0.0004230   0.0000250  -0.0010214
   18  -0.0003103  -0.0007340   0.0012391   0.0002762   0.0000829  -0.0004634
   19   0.0010856   0.0003083   0.0005919  -0.0000923   0.0016618   0.0014378
   20  -0.0005397  -0.0002057  -0.0001888   0.0009999  -0.0020311  -0.0005659
   21  -0.0006081  -0.0020099   0.0001701   0.0002536   0.0020786   0.0011884
   22   0.0003744   0.0000484   0.0002169   0.0000358   0.0002570   0.0004234
   23  -0.0001842   0.0001148   0.0002136  -0.0000966   0.0005642  -0.0002280
   24  -0.0002858   0.0001548   0.0001437   0.0003945  -0.0003653   0.0005024
   25   0.0000334   0.0001715  -0.0000570  -0.0006063  -0.0014860  -0.0009350
   26   0.0002163  -0.0005779   0.0000648  -0.0010324  -0.0025353  -0.0023597
   27   0.0002630  -0.0000355   0.0000716   0.0007338  -0.0002874   0.0031190
   28  -0.0086488  -0.0026405  -0.0017201  -0.0077817  -0.0006134  -0.0028278
   29   0.0179019   0.0029947   0.0017423   0.0075108   0.0017495   0.0035027
   30   0.0191190   0.0035172   0.0022188  -0.0222296  -0.0050573  -0.0120124
   31   0.1087666  -0.0813009  -0.0864367  -0.0004898  -0.0040640  -0.0053985
   32  -0.0813009   0.1612595   0.1146193  -0.0016928   0.0047730   0.0053427
   33  -0.0864367   0.1146193   0.1515439   0.0057018  -0.0120433  -0.0133915
   34  -0.0004898  -0.0016928   0.0057018   0.0641208   0.0248123   0.0014848
   35  -0.0040640   0.0047730  -0.0120433   0.0248123   0.1259869  -0.0056652
   36  -0.0053985   0.0053427  -0.0133915   0.0014848  -0.0056652   0.0121592
   37  -0.0000067  -0.0000730   0.0001923  -0.0030532  -0.0010291  -0.0031249
   38   0.0002189  -0.0000833   0.0003445  -0.0012656  -0.0004056  -0.0013436
   39   0.0000804   0.0000820   0.0000545   0.0021148   0.0011119   0.0040666
   40  -0.0001785  -0.0001039  -0.0005825   0.0006167   0.0005454   0.0003425
   41   0.0001252   0.0000601   0.0000949   0.0002893   0.0006036   0.0000880
   42  -0.0000074  -0.0001181   0.0000329   0.0000159   0.0000916   0.0011114
   43   0.0001269   0.0000712   0.0000336   0.0001158   0.0001704  -0.0000341
   44   0.0002559   0.0001491   0.0002068   0.0001619   0.0003695   0.0000491
   45   0.0000632   0.0004788   0.0000513   0.0000137  -0.0001272  -0.0002429
   46   0.0000927  -0.0011881  -0.0002431  -0.0001011  -0.0002997  -0.0002343
   47  -0.0001788   0.0003681  -0.0004256  -0.0001436   0.0000479   0.0002697
   48   0.0005515   0.0004124   0.0001652   0.0001659  -0.0001259  -0.0001840
           37          38          39          40          41          42
    1   0.0013459   0.0005323  -0.0004481  -0.0068094  -0.0016076   0.0030441
    2  -0.0004396  -0.0005275  -0.0007404  -0.0011414   0.0009022   0.0014977
    3  -0.0013170  -0.0001954   0.0002485   0.0028561   0.0003720  -0.0001001
    4  -0.0005662   0.0007506   0.0000972  -0.0001743  -0.0003579   0.0001853
    5  -0.0000024  -0.0007159   0.0016168   0.0001536  -0.0006901   0.0022924
    6  -0.0004996   0.0022304  -0.0028932   0.0001214   0.0006524  -0.0025769
    7  -0.0023415  -0.0001766   0.0024659   0.0003340   0.0000686  -0.0001903
    8  -0.0004443  -0.0007004   0.0020981   0.0001932  -0.0000955   0.0002979
    9   0.0034018   0.0021739  -0.0018800  -0.0004212  -0.0001821   0.0004215
   10  -0.0096449  -0.0035510  -0.0012967  -0.0138896  -0.0045302   0.0014231
   11  -0.0139407  -0.0039646   0.0030547   0.0229666   0.0070479  -0.0129160
   12  -0.0151075  -0.0034609   0.0031348   0.0017289   0.0006522  -0.0027054
   13  -0.1078229  -0.0686595  -0.0770421  -0.1124266   0.1140759   0.0155144
   14  -0.0704180  -0.1249570  -0.0939542   0.1128464  -0.2357609  -0.0247653
   15  -0.0840171  -0.0976205  -0.1493085   0.0150082  -0.0248112  -0.0530602
   16  -0.0008018   0.0091633  -0.0115399  -0.0011963   0.0040901  -0.0124809
   17  -0.0004410   0.0075525  -0.0134261   0.0002069  -0.0097405   0.0222078
   18   0.0002941   0.0118848  -0.0157954   0.0013435  -0.0030432   0.0031913
   19  -0.0004848   0.0006439   0.0001427   0.0002842  -0.0001482  -0.0001418
   20   0.0007567   0.0000037   0.0002385  -0.0000109   0.0003267   0.0004875
   21   0.0000381   0.0000463   0.0002590   0.0000987   0.0000646  -0.0002862
   22   0.0003376  -0.0000781  -0.0000973  -0.0009070  -0.0001089   0.0004458
   23   0.0001306   0.0000997   0.0002831   0.0015766   0.0003760  -0.0004691
   24   0.0004524   0.0001457   0.0000082  -0.0010099  -0.0000776   0.0007701
   25  -0.0003098   0.0005032  -0.0009619  -0.0002252   0.0003450  -0.0009703
   26  -0.0000587   0.0000112  -0.0000195  -0.0000172   0.0000987  -0.0002638
   27  -0.0002078   0.0001097  -0.0000094  -0.0000084  -0.0000647   0.0002263
   28  -0.0000532  -0.0001127   0.0001057   0.0001536  -0.0000103   0.0000514
   29   0.0001866   0.0001139  -0.0002583  -0.0001388   0.0001259  -0.0001454
   30  -0.0011172  -0.0002973   0.0010894   0.0001204   0.0000817   0.0001549
   31  -0.0000067   0.0002189   0.0000804  -0.0001785   0.0001252  -0.0000074
   32  -0.0000730  -0.0000833   0.0000820  -0.0001039   0.0000601  -0.0001181
   33   0.0001923   0.0003445   0.0000545  -0.0005825   0.0000949   0.0000329
   34  -0.0030532  -0.0012656   0.0021148   0.0006167   0.0002893   0.0000159
   35  -0.0010291  -0.0004056   0.0011119   0.0005454   0.0006036   0.0000916
   36  -0.0031249  -0.0013436   0.0040666   0.0003425   0.0000880   0.0011114
   37   0.1130914   0.0757182   0.0895110   0.0093518   0.0099035   0.0113450
   38   0.0757182   0.1373256   0.1012370  -0.0138707  -0.0150703  -0.0164948
   39   0.0895110   0.1012370   0.1646732  -0.0022965  -0.0026021  -0.0030636
   40   0.0093518  -0.0138707  -0.0022965   0.1242615  -0.1226997  -0.0173464
   41   0.0099035  -0.0150703  -0.0026021  -0.1226997   0.2509811   0.0267135
   42   0.0113450  -0.0164948  -0.0030636  -0.0173464   0.0267135   0.0568985
   43   0.0009473  -0.0002532   0.0005417  -0.0000193   0.0008748  -0.0013867
   44   0.0002410   0.0015120  -0.0001635  -0.0004524  -0.0004738   0.0019254
   45  -0.0002418  -0.0001955   0.0018094   0.0003026   0.0019068  -0.0025659
   46   0.0000109   0.0004370  -0.0013768   0.0008245  -0.0003097   0.0004986
   47  -0.0000899  -0.0001940   0.0014420  -0.0000537   0.0013087  -0.0003412
   48   0.0003981   0.0014355  -0.0023934  -0.0002573   0.0001549   0.0015514
           43          44          45          46          47          48
    1   0.0017773   0.0001513   0.0005292  -0.0073399   0.0005553  -0.0010987
    2  -0.0009524   0.0008088   0.0006497  -0.0003567   0.0000302   0.0000701
    3  -0.0015474  -0.0002510   0.0012502  -0.0002728   0.0008178   0.0002277
    4  -0.0093164   0.0013498  -0.0005445  -0.0099996  -0.0009541  -0.0019884
    5  -0.0312841   0.0014489  -0.0038223   0.0142827  -0.0014571   0.0027010
    6  -0.0005154   0.0000491  -0.0014994   0.0264933  -0.0003737   0.0036603
    7  -0.0068211  -0.0001700  -0.0012224   0.0019374  -0.0008114   0.0001412
    8   0.0010951   0.0008786   0.0001278   0.0015817   0.0011095   0.0002335
    9   0.0003472  -0.0005257  -0.0002250   0.0009233   0.0005837   0.0005805
   10  -0.0008352  -0.0002870   0.0004744  -0.0013340   0.0001339  -0.0005253
   11  -0.0001462  -0.0011151   0.0023025   0.0007329  -0.0011875   0.0013771
   12   0.0002934   0.0014203  -0.0031043  -0.0004635   0.0017705  -0.0015641
   13   0.0016515  -0.0024272   0.0083470   0.0030374  -0.0073126   0.0097576
   14   0.0083396  -0.0096419   0.0226733  -0.0037414   0.0069911  -0.0127138
   15   0.0001665  -0.0020782   0.0013336  -0.0075249   0.0130322  -0.0169264
   16  -0.0783104  -0.0819527  -0.0006438  -0.0899070   0.0477785   0.0804447
   17  -0.0795174  -0.2727191  -0.0075253   0.0460473  -0.1088328  -0.0955496
   18  -0.0002468  -0.0079786  -0.0493192   0.0785584  -0.0963297  -0.2029814
   19   0.0001311  -0.0002466   0.0003039   0.0000429  -0.0000751  -0.0001911
   20   0.0003624   0.0000862  -0.0002221   0.0000635   0.0002082   0.0000578
   21   0.0006737   0.0005136   0.0000085  -0.0001916   0.0004848  -0.0000586
   22   0.0001022   0.0000063  -0.0001295  -0.0002398   0.0001088   0.0000348
   23   0.0003152   0.0002436  -0.0000124  -0.0000316   0.0003824  -0.0000433
   24  -0.0002183   0.0001604  -0.0000955   0.0021545  -0.0001372   0.0003451
   25   0.0009372  -0.0008048   0.0000621   0.0001435   0.0003991   0.0007009
   26   0.0004552   0.0002867  -0.0000976   0.0002994  -0.0001202   0.0000039
   27  -0.0006198  -0.0001021  -0.0000797  -0.0005039  -0.0000061  -0.0000478
   28  -0.0004848  -0.0001562  -0.0000935   0.0001576   0.0001805  -0.0001241
   29  -0.0020206   0.0001335  -0.0003238   0.0001791  -0.0000381   0.0001780
   30   0.0004981  -0.0001893   0.0007239  -0.0005722   0.0001813   0.0002303
   31   0.0001269   0.0002559   0.0000632   0.0000927  -0.0001788   0.0005515
   32   0.0000712   0.0001491   0.0004788  -0.0011881   0.0003681   0.0004124
   33   0.0000336   0.0002068   0.0000513  -0.0002431  -0.0004256   0.0001652
   34   0.0001158   0.0001619   0.0000137  -0.0001011  -0.0001436   0.0001659
   35   0.0001704   0.0003695  -0.0001272  -0.0002997   0.0000479  -0.0001259
   36  -0.0000341   0.0000491  -0.0002429  -0.0002343   0.0002697  -0.0001840
   37   0.0009473   0.0002410  -0.0002418   0.0000109  -0.0000899   0.0003981
   38  -0.0002532   0.0015120  -0.0001955   0.0004370  -0.0001940   0.0014355
   39   0.0005417  -0.0001635   0.0018094  -0.0013768   0.0014420  -0.0023934
   40  -0.0000193  -0.0004524   0.0003026   0.0008245  -0.0000537  -0.0002573
   41   0.0008748  -0.0004738   0.0019068  -0.0003097   0.0013087   0.0001549
   42  -0.0013867   0.0019254  -0.0025659   0.0004986  -0.0003412   0.0015514
   43   0.0848183   0.0896694   0.0020852   0.0051795   0.0128206  -0.0000710
   44   0.0896694   0.2916738   0.0072901  -0.0053388  -0.0136407  -0.0003263
   45   0.0020852   0.0072901   0.0522084  -0.0093061  -0.0231029  -0.0002534
   46   0.0051795  -0.0053388  -0.0093061   0.0974949  -0.0523575  -0.0879389
   47   0.0128206  -0.0136407  -0.0231029  -0.0523575   0.1150243   0.1021347
   48  -0.0000710  -0.0003263  -0.0002534  -0.0879389   0.1021347   0.2176487
 Gradient time:  CPU 12620.27 s  wall 3130.09 s
 **********************************************************************
 **                                                                  **
 **                       VIBRATIONAL ANALYSIS                       **
 **                       --------------------                       **
 **                                                                  **
 **        VIBRATIONAL FREQUENCIES (CM**-1) AND NORMAL MODES         **
 **     FORCE CONSTANTS (mDYN/ANGSTROM) AND REDUCED MASSES (AMU)     **
 **                  INFRARED INTENSITIES (KM/MOL)                   **
 **                                                                  **
 **********************************************************************
 

 Mode:                 1                      2                      3
 Frequency:      -720.22                 311.92                 409.27
 Force Cnst:      0.4995                 0.1012                 0.1845
 Red. Mass:       1.6344                 1.7649                 1.8692
 IR Active:          YES                    YES                    YES
 IR Intens:       81.837                  0.951                  0.266
 Raman Active:       YES                    YES                    YES
               X      Y      Z        X      Y      Z        X      Y      Z
 C         -0.017  0.011 -0.007    0.006 -0.060  0.029   -0.027  0.040  0.079
 C          0.002  0.032 -0.011    0.006  0.021  0.008   -0.042  0.082  0.067
 C          0.049  0.053  0.082   -0.080  0.063 -0.055    0.167  0.018 -0.038
 C         -0.067 -0.089 -0.176    0.019 -0.081 -0.049   -0.037  0.021  0.030
 C          0.006 -0.011  0.004    0.038  0.136  0.093   -0.047 -0.019 -0.022
 C          0.002  0.010 -0.000    0.017 -0.103 -0.042   -0.049 -0.109 -0.083
 H         -0.008 -0.014  0.024   -0.006 -0.083  0.091   -0.024  0.025  0.113
 H         -0.021  0.018 -0.029    0.002 -0.076  0.007   -0.027  0.037  0.082
 H          0.032  0.020 -0.048    0.043  0.089  0.037   -0.078  0.085  0.090
 H          0.070 -0.058  0.271   -0.083  0.122  0.138    0.197 -0.252 -0.338
 H          0.101 -0.070  0.249   -0.234  0.067 -0.172    0.528  0.167  0.075
 H          0.072  0.007  0.878    0.082 -0.036 -0.044   -0.016  0.037 -0.016
 H          0.006  0.006 -0.024   -0.246  0.407  0.076   -0.023  0.041 -0.092
 H          0.016 -0.000 -0.035    0.313  0.280  0.311   -0.058 -0.034  0.046
 H          0.013  0.006  0.004    0.135 -0.144 -0.296    0.190 -0.197 -0.263
 H         -0.003  0.010 -0.004   -0.086 -0.344  0.046   -0.276 -0.320 -0.077
 TransDip  -0.159 -0.234  0.063   -0.011  0.024  0.017    0.001 -0.000 -0.016

 Mode:                 4                      5                      6
 Frequency:       477.75                 643.07                 665.39
 Force Cnst:      0.2438                 0.8025                 0.3161
 Red. Mass:       1.8128                 3.2938                 1.2117
 IR Active:          YES                    YES                    YES
 IR Intens:        1.185                  4.276                  1.338
 Raman Active:       YES                    YES                    YES
               X      Y      Z        X      Y      Z        X      Y      Z
 C          0.170  0.081  0.023   -0.049  0.093 -0.045   -0.005 -0.001  0.010
 C         -0.051 -0.055 -0.003   -0.170 -0.009  0.001    0.004 -0.000 -0.003
 C          0.002 -0.080 -0.055   -0.023  0.012 -0.166    0.103 -0.000  0.012
 C         -0.055 -0.072 -0.047    0.121  0.090 -0.093   -0.064  0.009  0.003
 C         -0.047  0.036  0.044    0.192 -0.055  0.116   -0.055  0.009  0.004
 C         -0.063  0.042  0.022   -0.110 -0.110  0.170   -0.007  0.003 -0.014
 H          0.579 -0.041 -0.131   -0.057  0.194 -0.269    0.150 -0.074  0.016
 H          0.204  0.484  0.223   -0.002 -0.017  0.184   -0.006  0.181  0.014
 H         -0.082 -0.043  0.024    0.056  0.092 -0.055   -0.034 -0.048 -0.018
 H          0.011 -0.169 -0.166    0.025 -0.317  0.168    0.111  0.021  0.565
 H          0.130 -0.026 -0.016    0.036  0.162 -0.272   -0.281  0.092 -0.369
 H         -0.073 -0.044 -0.019    0.265  0.076  0.158    0.464 -0.164 -0.193
 H         -0.214  0.117  0.099    0.410 -0.119  0.002    0.094 -0.095 -0.025
 H          0.111  0.132  0.072   -0.008 -0.169  0.015   -0.201 -0.072 -0.072
 H         -0.172  0.082  0.056   -0.150 -0.094  0.139    0.034 -0.011 -0.075
 H          0.036  0.095  0.044   -0.118 -0.059  0.135   -0.030 -0.069  0.015
 TransDip   0.019  0.012  0.027    0.020 -0.036  0.052    0.001  0.002 -0.037

 Mode:                 7                      8                      9
 Frequency:       758.77                 817.76                 848.28
 Force Cnst:      1.4446                 0.6964                 1.0918
 Red. Mass:       4.2587                 1.7675                 2.5753
 IR Active:          YES                    YES                    YES
 IR Intens:       11.771                  7.405                  3.531
 Raman Active:       YES                    YES                    YES
               X      Y      Z        X      Y      Z        X      Y      Z
 C          0.111 -0.080 -0.192    0.062 -0.134  0.002    0.107 -0.121  0.058
 C         -0.050  0.060 -0.155    0.006  0.003 -0.072   -0.079  0.102 -0.112
 C          0.112  0.231  0.081   -0.035  0.033 -0.082   -0.023 -0.055 -0.010
 C          0.104 -0.126  0.208   -0.043  0.013  0.098    0.085  0.184 -0.084
 C         -0.066 -0.109  0.057    0.020  0.088  0.095   -0.154 -0.052  0.040
 C         -0.216 -0.039  0.003   -0.029  0.047 -0.035    0.061 -0.005 -0.012
 H          0.003 -0.004 -0.246    0.172 -0.191  0.017   -0.009 -0.122  0.187
 H          0.108 -0.116 -0.218    0.056  0.021 -0.006    0.153 -0.368  0.263
 H         -0.076  0.028 -0.158   -0.020  0.109  0.020   -0.160  0.201  0.009
 H          0.127  0.143  0.163   -0.028 -0.020 -0.074    0.007 -0.288  0.173
 H          0.111  0.182  0.129    0.055 -0.126  0.147    0.020 -0.088  0.052
 H          0.106  0.086 -0.020   -0.085  0.117  0.291    0.102  0.086  0.080
 H         -0.236  0.211 -0.077    0.496 -0.247  0.012   -0.305  0.033  0.089
 H          0.253  0.072  0.181   -0.355 -0.101 -0.277   -0.159 -0.086  0.319
 H         -0.279 -0.020  0.267   -0.030  0.052 -0.337    0.154 -0.042  0.217
 H         -0.075  0.172 -0.048   -0.017 -0.208  0.121    0.226  0.059  0.038
 TransDip  -0.021 -0.001 -0.108   -0.057 -0.063 -0.018    0.014 -0.018  0.056

 Mode:                10                     11                     12
 Frequency:       878.49                 891.49                 927.56
 Force Cnst:      0.7935                 1.3334                 1.2864
 Red. Mass:       1.7452                 2.8476                 2.5377
 IR Active:          YES                    YES                    YES
 IR Intens:        3.296                  1.448                  4.397
 Raman Active:       YES                    YES                    YES
               X      Y      Z        X      Y      Z        X      Y      Z
 C         -0.004 -0.024  0.113    0.044 -0.035  0.033    0.103 -0.066 -0.101
 C          0.074 -0.090  0.004    0.097 -0.088  0.010    0.066 -0.064  0.195
 C          0.013  0.053 -0.101    0.056  0.052  0.014    0.031 -0.001  0.020
 C         -0.074  0.077  0.039    0.098  0.063 -0.104   -0.028  0.122 -0.126
 C          0.015  0.008 -0.020   -0.147  0.113 -0.134    0.011 -0.062  0.110
 C         -0.033 -0.088 -0.066   -0.130 -0.080  0.199   -0.099  0.057 -0.075
 H          0.009 -0.055  0.167    0.022 -0.027  0.034   -0.092  0.030 -0.128
 H         -0.018  0.009  0.051    0.070 -0.161  0.127    0.074 -0.248 -0.284
 H          0.206 -0.043 -0.041    0.335 -0.161 -0.168   -0.127  0.057  0.397
 H          0.016  0.073  0.035    0.016  0.368 -0.167   -0.006  0.281 -0.115
 H         -0.020 -0.001 -0.068   -0.044 -0.013  0.006   -0.081  0.104 -0.163
 H          0.026  0.080  0.244   -0.121  0.050  0.008   -0.092 -0.022  0.006
 H          0.113  0.296 -0.341   -0.086 -0.057 -0.041   -0.077 -0.093  0.203
 H         -0.002 -0.030  0.225   -0.191  0.119 -0.338   -0.080 -0.129  0.208
 H         -0.387  0.039  0.340   -0.098 -0.095 -0.035   -0.192  0.095 -0.191
 H          0.169  0.389 -0.243   -0.107 -0.313  0.357   -0.335  0.073 -0.205
 TransDip  -0.050 -0.028 -0.008    0.028  0.014  0.023   -0.001  0.020  0.064

 Mode:                13                     14                     15
 Frequency:       930.35                 962.58                 987.59
 Force Cnst:      1.0212                 1.2680                 1.0123
 Red. Mass:       2.0025                 2.3226                 1.7616
 IR Active:          YES                    YES                    YES
 IR Intens:        1.775                  2.284                  1.890
 Raman Active:       YES                    YES                    YES
               X      Y      Z        X      Y      Z        X      Y      Z
 C          0.064 -0.055 -0.113   -0.018 -0.130 -0.056    0.047  0.046 -0.014
 C          0.039  0.114  0.089   -0.107 -0.039 -0.002   -0.028 -0.100  0.082
 C         -0.054 -0.091 -0.007   -0.005  0.115  0.157   -0.055  0.079 -0.029
 C         -0.069  0.013  0.040   -0.099  0.068 -0.082    0.057 -0.062  0.025
 C          0.005  0.064 -0.109    0.101  0.055 -0.034   -0.113  0.062 -0.011
 C         -0.019 -0.064  0.099    0.079 -0.073  0.039    0.093 -0.033 -0.045
 H          0.048 -0.094 -0.007    0.320 -0.332  0.045   -0.225  0.240 -0.177
 H          0.008  0.072 -0.396    0.011  0.145  0.106    0.007 -0.137 -0.229
 H          0.094  0.464  0.328   -0.253 -0.174 -0.016   -0.135 -0.014  0.204
 H         -0.021 -0.341  0.151   -0.001  0.015 -0.279    0.003 -0.336  0.077
 H          0.046 -0.081  0.055    0.232  0.452 -0.007    0.214  0.375 -0.125
 H          0.112 -0.053  0.027   -0.030 -0.069 -0.306    0.121  0.002  0.137
 H          0.093  0.197 -0.293    0.145 -0.006 -0.020   -0.016 -0.106  0.055
 H          0.057  0.098 -0.092   -0.019 -0.027  0.033   -0.223  0.011 -0.135
 H          0.058 -0.096  0.250   -0.041 -0.030  0.160   -0.165  0.063 -0.009
 H         -0.075  0.049  0.008    0.217  0.061  0.033    0.422 -0.014  0.116
 TransDip  -0.003  0.007 -0.042    0.018  0.038 -0.024   -0.024 -0.037 -0.002

 Mode:                16                     17                     18
 Frequency:      1002.02                1073.25                1092.97
 Force Cnst:      0.8878                 1.1150                 1.1472
 Red. Mass:       1.5008                 1.6430                 1.6300
 IR Active:          YES                    YES                    YES
 IR Intens:        1.768                  1.351                  5.360
 Raman Active:       YES                    YES                    YES
               X      Y      Z        X      Y      Z        X      Y      Z
 C          0.060  0.070  0.031   -0.129 -0.047 -0.032   -0.020  0.047  0.002
 C          0.056  0.046 -0.067    0.071  0.013  0.043   -0.021  0.067 -0.010
 C         -0.051 -0.037  0.077   -0.056  0.020  0.024    0.056 -0.057  0.029
 C         -0.030 -0.023 -0.050    0.142 -0.007 -0.026    0.086 -0.078 -0.059
 C          0.038  0.013  0.053   -0.055  0.008  0.028   -0.027  0.090  0.072
 C         -0.080 -0.026 -0.022   -0.005  0.001 -0.045   -0.027 -0.089 -0.046
 H         -0.178 -0.047  0.548    0.327 -0.216 -0.116   -0.022  0.021  0.067
 H          0.009 -0.188 -0.252   -0.116  0.440  0.061   -0.057  0.119 -0.165
 H          0.237 -0.029 -0.221    0.448  0.160 -0.054   -0.332  0.097  0.188
 H         -0.021 -0.295 -0.033   -0.022 -0.233  0.002   -0.007  0.392 -0.196
 H          0.143  0.179 -0.005    0.161  0.049  0.151   -0.170 -0.232  0.040
 H          0.113 -0.098 -0.275    0.131 -0.011 -0.067   -0.110 -0.038 -0.103
 H          0.078 -0.130  0.143   -0.074 -0.098  0.135    0.292 -0.023 -0.078
 H         -0.032 -0.016 -0.088   -0.215 -0.110  0.191   -0.353 -0.114  0.072
 H         -0.326  0.070 -0.097   -0.129  0.049 -0.034   -0.033 -0.095  0.349
 H          0.053  0.033  0.011   -0.124  0.118 -0.177    0.235  0.124 -0.030
 TransDip   0.037  0.022  0.004    0.035 -0.009 -0.007    0.034  0.054  0.038

 Mode:                19                     20                     21
 Frequency:      1141.16                1168.45                1200.24
 Force Cnst:      0.8914                 0.9666                 1.0403
 Red. Mass:       1.1619                 1.2016                 1.2257
 IR Active:          YES                    YES                    YES
 IR Intens:        2.133                  0.773                 10.025
 Raman Active:       YES                    YES                    YES
               X      Y      Z        X      Y      Z        X      Y      Z
 C          0.017  0.009 -0.028    0.041 -0.002 -0.013    0.031  0.015  0.006
 C          0.007 -0.004  0.008    0.008  0.022  0.007   -0.008 -0.053  0.034
 C         -0.043 -0.034  0.004   -0.018 -0.008  0.037   -0.025  0.081 -0.064
 C          0.051 -0.011  0.017   -0.057 -0.057 -0.012    0.000 -0.013 -0.037
 C         -0.040 -0.009  0.022   -0.020  0.066  0.033    0.001  0.016 -0.005
 C         -0.005  0.065  0.016    0.023 -0.012 -0.012    0.007  0.020  0.033
 H          0.042 -0.115  0.226   -0.097  0.224 -0.385   -0.028 -0.032  0.163
 H         -0.010  0.048 -0.171    0.140 -0.361  0.444   -0.012  0.008 -0.213
 H         -0.042 -0.338 -0.219    0.269 -0.016 -0.163   -0.215 -0.331 -0.055
 H         -0.047 -0.033 -0.180   -0.016 -0.041 -0.036    0.008 -0.109  0.241
 H          0.007  0.321 -0.324    0.043  0.039  0.031    0.144 -0.342  0.498
 H         -0.025 -0.085  0.267    0.052 -0.062 -0.154    0.161  0.101 -0.320
 H          0.169  0.198 -0.313    0.181  0.020 -0.084    0.043  0.027 -0.048
 H         -0.116 -0.072  0.160   -0.185 -0.031 -0.007   -0.125 -0.081  0.149
 H          0.364 -0.076  0.111    0.139 -0.056  0.144    0.180 -0.050  0.075
 H         -0.201 -0.027 -0.033   -0.262  0.170 -0.273   -0.232  0.020 -0.090
 TransDip   0.020 -0.023  0.035    0.011  0.007 -0.025   -0.011 -0.051 -0.087

 Mode:                22                     23                     24
 Frequency:      1229.22                1260.89                1276.40
 Force Cnst:      1.1566                 1.4557                 1.3403
 Red. Mass:       1.2992                 1.5541                 1.3963
 IR Active:          YES                    YES                    YES
 IR Intens:        8.355                  4.178                  1.293
 Raman Active:       YES                    YES                    YES
               X      Y      Z        X      Y      Z        X      Y      Z
 C          0.019  0.004 -0.044    0.023 -0.076  0.154    0.048 -0.007  0.024
 C         -0.059  0.021  0.038    0.048 -0.001 -0.082   -0.101  0.008 -0.010
 C          0.024 -0.009 -0.045   -0.024  0.000  0.025    0.040 -0.011  0.011
 C          0.007  0.012  0.058   -0.016  0.023 -0.019   -0.010 -0.044  0.021
 C          0.018  0.074 -0.029    0.052  0.024 -0.020    0.042  0.027 -0.094
 C          0.031 -0.068 -0.014   -0.066  0.003 -0.006    0.051  0.017  0.059
 H          0.040 -0.134  0.242   -0.143  0.288 -0.485   -0.088  0.080 -0.031
 H          0.018 -0.018 -0.061   -0.105  0.289 -0.445   -0.003  0.020 -0.218
 H          0.050 -0.188 -0.183   -0.083 -0.019 -0.026    0.246  0.120 -0.127
 H          0.016  0.042  0.058   -0.013 -0.092 -0.064    0.023  0.079 -0.018
 H         -0.090 -0.016 -0.122    0.037  0.140 -0.081   -0.099 -0.033 -0.068
 H         -0.121  0.043  0.243    0.057 -0.028  0.016   -0.151  0.020  0.031
 H         -0.240 -0.338  0.522   -0.138 -0.127  0.253   -0.086  0.020  0.005
 H         -0.000  0.084 -0.173   -0.028 -0.027  0.009   -0.359 -0.308  0.594
 H          0.056 -0.083  0.214    0.290 -0.138  0.232   -0.239  0.136 -0.313
 H         -0.212  0.203 -0.305   -0.086  0.024 -0.032   -0.076 -0.015  0.010
 TransDip  -0.057 -0.073  0.005   -0.023  0.057 -0.022   -0.036  0.005 -0.002

 Mode:                25                     26                     27
 Frequency:      1318.13                1329.52                1345.71
 Force Cnst:      1.6150                 1.5362                 1.6853
 Red. Mass:       1.5776                 1.4751                 1.5796
 IR Active:          YES                    YES                    YES
 IR Intens:        4.982                  4.614                  4.134
 Raman Active:       YES                    YES                    YES
               X      Y      Z        X      Y      Z        X      Y      Z
 C          0.022 -0.072  0.023    0.003  0.010 -0.041    0.031 -0.006  0.036
 C         -0.040  0.150  0.121   -0.022 -0.015  0.078   -0.154 -0.101 -0.000
 C          0.007 -0.023 -0.022    0.001  0.002 -0.014    0.043  0.016  0.028
 C          0.003  0.021 -0.024   -0.031 -0.008  0.015    0.012  0.018 -0.034
 C         -0.026 -0.034  0.036    0.065  0.016 -0.042   -0.051 -0.023  0.069
 C          0.019 -0.025 -0.027   -0.115  0.056 -0.100    0.042  0.027 -0.028
 H          0.005  0.079 -0.305    0.045 -0.053  0.045   -0.039 -0.010  0.107
 H         -0.021  0.100 -0.211    0.041 -0.128  0.121   -0.052  0.096 -0.359
 H          0.130 -0.514 -0.472    0.341  0.007 -0.099    0.558  0.375 -0.040
 H         -0.001 -0.009  0.042    0.001  0.038  0.075    0.028  0.114 -0.007
 H         -0.063 -0.131  0.036    0.040 -0.040  0.065   -0.042 -0.056  0.047
 H         -0.107  0.039 -0.068    0.014  0.003 -0.022   -0.087  0.075 -0.140
 H          0.082  0.073 -0.136   -0.073 -0.073  0.140    0.163  0.050 -0.149
 H          0.135  0.092 -0.166   -0.103 -0.128  0.225    0.201  0.178 -0.286
 H         -0.247  0.084 -0.105    0.378 -0.139  0.307    0.241 -0.046  0.083
 H          0.270 -0.023  0.106    0.481 -0.205  0.373   -0.055  0.044 -0.099
 TransDip   0.016  0.003 -0.070    0.030 -0.048  0.039    0.052  0.039  0.009

 Mode:                28                     29                     30
 Frequency:      1389.27                1461.86                1480.51
 Force Cnst:      1.2291                 1.3828                 1.3987
 Red. Mass:       1.0808                 1.0982                 1.0830
 IR Active:          YES                    YES                    YES
 IR Intens:        2.224                  5.566                  5.699
 Raman Active:       YES                    YES                    YES
               X      Y      Z        X      Y      Z        X      Y      Z
 C          0.017  0.002  0.001    0.007 -0.020 -0.007    0.003 -0.006 -0.011
 C         -0.040  0.011  0.008    0.003  0.009 -0.012   -0.007 -0.004  0.006
 C         -0.044 -0.026 -0.019   -0.026 -0.076 -0.028    0.002  0.004  0.002
 C         -0.007  0.018  0.026    0.004 -0.005 -0.005    0.004 -0.000  0.005
 C         -0.008 -0.012 -0.012   -0.001  0.003  0.003    0.066 -0.019  0.039
 C          0.015 -0.005  0.005   -0.005 -0.007  0.010   -0.008 -0.009  0.011
 H         -0.028  0.022  0.002   -0.148  0.036  0.042   -0.058  0.000  0.047
 H          0.009  0.007 -0.040    0.013  0.161  0.078    0.009  0.064  0.033
 H          0.049  0.012 -0.049   -0.004  0.019 -0.002    0.024  0.005 -0.004
 H         -0.091  0.433 -0.302   -0.073  0.453  0.494    0.004 -0.013 -0.025
 H          0.185 -0.039  0.159    0.554  0.303  0.039   -0.025 -0.022  0.008
 H          0.716 -0.300  0.144   -0.215  0.107 -0.067    0.012  0.008 -0.010
 H         -0.060 -0.031  0.045    0.022 -0.002 -0.010   -0.456  0.486 -0.029
 H          0.037  0.013 -0.005    0.002  0.003  0.004   -0.436 -0.240 -0.472
 H         -0.043  0.019 -0.057    0.032 -0.017 -0.080    0.102 -0.041 -0.135
 H          0.023  0.013 -0.004    0.034  0.082 -0.031    0.095  0.151 -0.039
 TransDip  -0.009 -0.033 -0.033    0.024  0.072  0.003   -0.072  0.013 -0.022

 Mode:                31                     32                     33
 Frequency:      1507.87                1528.68                1942.75
 Force Cnst:      1.4716                 1.5238                 2.3431
 Red. Mass:       1.0985                 1.1068                 1.0537
 IR Active:          YES                    YES                    YES
 IR Intens:        5.023                  1.208                 10.410
 Raman Active:       YES                    YES                    YES
               X      Y      Z        X      Y      Z        X      Y      Z
 C         -0.035  0.045  0.036    0.029 -0.035 -0.036   -0.002 -0.006 -0.004
 C          0.003  0.003 -0.005    0.006 -0.008  0.016    0.005  0.001  0.008
 C         -0.002 -0.007 -0.003    0.007  0.023  0.006   -0.005 -0.041  0.028
 C          0.002 -0.001  0.005   -0.000  0.001 -0.006   -0.018 -0.033 -0.007
 C         -0.009  0.001 -0.004   -0.023  0.005 -0.008   -0.002 -0.002 -0.006
 C         -0.038 -0.024  0.037   -0.049 -0.022  0.034    0.001  0.001  0.000
 H          0.484 -0.124 -0.166   -0.401  0.096  0.146    0.002 -0.021  0.009
 H         -0.069 -0.447 -0.252    0.063  0.363  0.221   -0.003  0.005  0.006
 H         -0.025  0.001  0.007    0.006 -0.028  0.013   -0.008 -0.024  0.002
 H         -0.008  0.044  0.051    0.022 -0.128 -0.115   -0.015  0.047 -0.135
 H          0.053  0.032  0.003   -0.146 -0.078 -0.008   -0.049  0.054 -0.100
 H         -0.020  0.017  0.002    0.033 -0.028  0.011    0.339  0.918 -0.020
 H          0.032 -0.043  0.006    0.127 -0.134  0.003   -0.013 -0.014  0.006
 H          0.036  0.023  0.045    0.110  0.066  0.125    0.008 -0.000  0.008
 H          0.242 -0.105 -0.377    0.274 -0.121 -0.389   -0.002  0.000 -0.003
 H          0.227  0.398 -0.093    0.264  0.414 -0.080   -0.001  0.000 -0.000
 TransDip   0.060 -0.022 -0.033    0.019  0.025 -0.016   -0.031  0.026 -0.095

 Mode:                34                     35                     36
 Frequency:      2991.30                2994.22                3009.03
 Force Cnst:      5.6877                 5.6447                 5.6537
 Red. Mass:       1.0789                 1.0686                 1.0598
 IR Active:          YES                    YES                    YES
 IR Intens:       28.047                 34.307                 39.529
 Raman Active:       YES                    YES                    YES
               X      Y      Z        X      Y      Z        X      Y      Z
 C          0.006 -0.013 -0.008    0.001  0.003  0.002    0.017 -0.049 -0.030
 C         -0.030  0.040 -0.054   -0.011  0.015 -0.020    0.002 -0.004  0.007
 C          0.003  0.003  0.001    0.001  0.001  0.001   -0.002 -0.001 -0.001
 C          0.000  0.000  0.000   -0.001 -0.001 -0.001   -0.001 -0.000 -0.001
 C          0.014  0.005  0.012   -0.049 -0.017 -0.044   -0.002  0.001  0.000
 C         -0.012 -0.011  0.011    0.006  0.007 -0.002    0.021  0.015 -0.020
 H          0.086  0.172  0.074   -0.020 -0.042 -0.020    0.295  0.602  0.263
 H         -0.162 -0.009  0.027    0.010  0.002 -0.002   -0.483 -0.024  0.089
 H          0.353 -0.479  0.635    0.133 -0.180  0.239   -0.031  0.045 -0.065
 H         -0.055 -0.003  0.002   -0.021 -0.002  0.002    0.033  0.003 -0.001
 H          0.022 -0.028 -0.028    0.011 -0.013 -0.014   -0.014  0.017  0.017
 H          0.002 -0.003  0.008    0.002  0.001  0.007    0.002  0.002  0.001
 H         -0.120 -0.141 -0.160    0.425  0.502  0.571    0.003  0.003  0.003
 H         -0.042  0.076  0.014    0.158 -0.285 -0.047    0.015 -0.022 -0.004
 H          0.079  0.226  0.010   -0.043 -0.111 -0.006   -0.119 -0.335 -0.015
 H          0.074 -0.096 -0.149   -0.022  0.027  0.040   -0.123  0.156  0.243
 TransDip  -0.072  0.069 -0.137   -0.077  0.094 -0.143    0.125 -0.088 -0.132

 Mode:                37                     38                     39
 Frequency:      3016.61                3034.11                3049.95
 Force Cnst:      5.7075                 5.7255                 6.0473
 Red. Mass:       1.0645                 1.0556                 1.1034
 IR Active:          YES                    YES                    YES
 IR Intens:       50.386                 13.161                  7.019
 Raman Active:       YES                    YES                    YES
               X      Y      Z        X      Y      Z        X      Y      Z
 C          0.007 -0.023 -0.015    0.002  0.007  0.004   -0.001  0.000 -0.000
 C          0.012 -0.014  0.020   -0.004  0.008 -0.009   -0.001  0.002 -0.001
 C         -0.006 -0.008 -0.007   -0.026 -0.045 -0.036    0.000 -0.001 -0.000
 C         -0.000 -0.000 -0.001    0.000  0.000  0.001   -0.001 -0.000 -0.000
 C         -0.012 -0.007 -0.013    0.001  0.002  0.003    0.020 -0.052 -0.015
 C         -0.037 -0.023  0.036    0.006  0.004 -0.005   -0.003  0.063  0.036
 H          0.135  0.279  0.123   -0.042 -0.089 -0.041   -0.001 -0.002 -0.003
 H         -0.208 -0.009  0.040    0.017  0.002 -0.004    0.006 -0.001 -0.001
 H         -0.127  0.164 -0.221    0.054 -0.074  0.095    0.008 -0.012  0.014
 H          0.136  0.013 -0.006    0.651  0.071 -0.019    0.001  0.000 -0.001
 H         -0.068  0.084  0.087   -0.344  0.454  0.444   -0.006  0.005  0.007
 H          0.001  0.003 -0.002   -0.004 -0.005 -0.000    0.001  0.001 -0.000
 H          0.117  0.135  0.156   -0.021 -0.024 -0.028    0.094  0.093  0.113
 H          0.023 -0.045 -0.007    0.005 -0.008 -0.001   -0.322  0.526  0.073
 H          0.197  0.542  0.024   -0.032 -0.081 -0.003   -0.191 -0.499 -0.009
 H          0.225 -0.277 -0.435   -0.035  0.040  0.062    0.224 -0.252 -0.419
 TransDip  -0.081 -0.187  0.100   -0.040 -0.057 -0.093    0.058  0.037  0.050

 Mode:                40                     41                     42
 Frequency:      3062.81                3067.32                3117.96
 Force Cnst:      6.1105                 6.1141                 6.3732
 Red. Mass:       1.1056                 1.1030                 1.1127
 IR Active:          YES                    YES                    YES
 IR Intens:       32.504                 30.726                 10.970
 Raman Active:       YES                    YES                    YES
               X      Y      Z        X      Y      Z        X      Y      Z
 C         -0.080 -0.037 -0.003   -0.032 -0.015 -0.001   -0.001 -0.000 -0.000
 C         -0.002  0.001 -0.002   -0.001 -0.000 -0.002   -0.001  0.001 -0.000
 C          0.002 -0.002 -0.002   -0.002 -0.001 -0.000   -0.086  0.028  0.036
 C         -0.000 -0.000 -0.000   -0.001 -0.001 -0.000    0.000 -0.000 -0.000
 C         -0.007  0.024  0.008    0.018 -0.059 -0.020    0.000  0.002  0.001
 C         -0.001  0.019  0.011    0.005 -0.047 -0.031    0.000  0.002  0.001
 H          0.193  0.427  0.189    0.079  0.179  0.080    0.002  0.003  0.002
 H          0.757  0.014 -0.150    0.295  0.006 -0.058    0.018 -0.001 -0.005
 H          0.012 -0.016  0.024    0.007 -0.008  0.013    0.006 -0.008  0.010
 H          0.002  0.002  0.000    0.035  0.006  0.001    0.732  0.091 -0.009
 H         -0.019  0.026  0.026   -0.003  0.008  0.007    0.305 -0.423 -0.416
 H         -0.000  0.004  0.001    0.002  0.005  0.001   -0.013  0.002 -0.003
 H         -0.050 -0.052 -0.064    0.138  0.142  0.175   -0.004 -0.005 -0.007
 H          0.140 -0.228 -0.030   -0.340  0.555  0.073    0.008 -0.012 -0.001
 H         -0.056 -0.149 -0.003    0.135  0.353  0.004   -0.005 -0.014 -0.001
 H          0.071 -0.080 -0.136   -0.189  0.215  0.362    0.008 -0.006 -0.012
 TransDip  -0.180  0.029  0.008    0.020 -0.165 -0.062   -0.084  0.046  0.045

 STANDARD THERMODYNAMIC QUANTITIES AT   298.15 K  AND     1.00 ATM

   This Molecule has  1 Imaginary Frequencies
   Zero point vibrational energy:       88.065 kcal/mol

   Atom    1 Element C  Has Mass   12.00000
   Atom    2 Element C  Has Mass   12.00000
   Atom    3 Element C  Has Mass   12.00000
   Atom    4 Element C  Has Mass   12.00000
   Atom    5 Element C  Has Mass   12.00000
   Atom    6 Element C  Has Mass   12.00000
   Atom    7 Element H  Has Mass    1.00783
   Atom    8 Element H  Has Mass    1.00783
   Atom    9 Element H  Has Mass    1.00783
   Atom   10 Element H  Has Mass    1.00783
   Atom   11 Element H  Has Mass    1.00783
   Atom   12 Element H  Has Mass    1.00783
   Atom   13 Element H  Has Mass    1.00783
   Atom   14 Element H  Has Mass    1.00783
   Atom   15 Element H  Has Mass    1.00783
   Atom   16 Element H  Has Mass    1.00783
   Molecular Mass:    82.078300 amu
   Principal axes and moments of inertia in amu*Bohr^2:
                             1           2           3
    Eigenvalues --      364.84015   432.17616   491.42093
          X               0.94630    -0.28709    -0.14862
          Y               0.12074    -0.11260     0.98628
          Z               0.29988     0.95126     0.07189
   Rotational Symmetry Number is   1
   The Molecule is an Asymmetric Top
   Translational Enthalpy:        0.889 kcal/mol
   Rotational Enthalpy:           0.889 kcal/mol
   Vibrational Enthalpy:         89.308 kcal/mol
   gas constant (RT):             0.592 kcal/mol
   Translational Entropy:        39.129  cal/mol.K
   Rotational Entropy:           25.852  cal/mol.K
   Vibrational Entropy:           5.697  cal/mol.K

   Total Enthalpy:               91.678 kcal/mol
   Total Entropy:                70.678  cal/mol.K
Archival summary:
1\1\nid00463\FREQ\ProcedureUnspecified\BasisUnspecified\610\cgrambow\TueFeb1912:30:082019TueFeb1912:30:082019\0\\#,FREQ,ProcedureUnspecified,BasisUnspecified,\\0,1\C\H,1,1.10243\C,1,1.5382,2,120.337\H,3,1.09825,1,114.165,2,-55.1455,0\H,3,1.10074,1,114.983,2,72.1336,0\C,1,1.54212,2,114.392,3,122.011,0\H,6,1.09877,1,112.664,2,68.0901,0\H,6,1.09917,1,111.023,2,-53.0414,0\C,1,1.54471,2,114.906,3,-113.409,0\H,9,1.09674,1,113.678,2,54.3833,0\H,9,1.09681,1,118.042,2,-81.1754,0\H,9,1.28932,1,105.784,2,159.935,0\C,12,1.33517,9,113.284,1,3.0055,0\C,13,1.53104,12,105.768,9,66.4804,0\H,14,1.09725,13,112.966,12,54.1579,0\H,14,1.10309,13,105.115,12,170.352,0\\\@

 Total job time:  3187.36s(wall), 13506.27s(cpu) 
 Tue Feb 19 12:30:08 2019

        *************************************************************
        *                                                           *
        *  Thank you very much for using Q-Chem.  Have a nice day.  *
        *                                                           *
        *************************************************************



Running Job 2 of 3 ts_optfreq0080.in
qchem ts_optfreq0080.in_61884.1 /tmp/qchem61884/ 1
/global/common/cori/software/qchem/5.1/exe/qcprog.exe ts_optfreq0080.in_61884.1 /tmp/qchem61884/
Check license passed

                  Welcome to Q-Chem
     A Quantum Leap Into The Future Of Chemistry


 Q-Chem 5.1, Q-Chem, Inc., Pleasanton, CA (2018)

 Yihan Shao,  Zhengting Gan,  E. Epifanovsky,  A. T. B. Gilbert,  M. Wormit,  
 J. Kussmann,  A. W. Lange,  A. Behn,  Jia Deng,  Xintian Feng,  D. Ghosh,  
 M. Goldey,  P. R. Horn,  L. D. Jacobson,  I. Kaliman,  T. Kus,  A. Landau,  
 Jie Liu,  E. I. Proynov,  R. M. Richard,  R. P. Steele,  E. J. Sundstrom,  
 H. L. Woodcock III,  P. M. Zimmerman,  D. Zuev,  B. Albrecht,  E. Alguire,  
 S. A. Baeppler,  D. Barton,  Z. Benda,  Y. A. Bernard,  E. J. Berquist,  
 K. B. Bravaya,  H. Burton,  D. Casanova,  Chun-Min Chang,  Yunqing Chen,  
 A. Chien,  K. D. Closser,  M. P. Coons,  S. Coriani,  S. Dasgupta,  
 A. L. Dempwolff,  M. Diedenhofen,  Hainam Do,  R. G. Edgar,  Po-Tung Fang,  
 S. Faraji,  S. Fatehi,  Qingguo Feng,  K. D. Fenk,  J. Fosso-Tande,  
 Qinghui Ge,  A. Ghysels,  G. Gidofalvi,  J. Gomes,  J. Gonthier,  A. Gunina,  
 D. Hait,  M. W. D. Hanson-Heine,  P. H. P. Harbach,  A. W. Hauser,  
 J. E. Herr,  E. G. Hohenstein,  Z. C. Holden,  Kerwin Hui,  B. C. Huynh,  
 T.-C. Jagau,  Hyunjun Ji,  B. Kaduk,  K. Khistyaev,  Jaehoon Kim,  
 P. Klunzinger,  K. Koh,  D. Kosenkov,  L. Koulias,  T. Kowalczyk,  
 C. M. Krauter,  A. Kunitsa,  Ka Un Lao,  A. Laurent,  K. V. Lawler,  
 Joonho Lee,  D. Lefrancois,  S. Lehtola,  D. S. Levine,  Yi-Pei Li,  
 You-Sheng Lin,  Fenglai Liu,  E. Livshits,  A. Luenser,  P. Manohar,  
 E. Mansoor,  S. F. Manzer,  Shan-Ping Mao,  Yuezhi Mao,  N. Mardirossian,  
 A. V. Marenich,  T. Markovich,  L. A. Martinez-Martinez,  S. A. Maurer,  
 N. J. Mayhall,  S. C. McKenzie,  J.-M. Mewes,  A. F. Morrison,  
 J. W. Mullinax,  K. Nanda,  T. S. Nguyen-Beck,  R. Olivares-Amaya,  
 J. A. Parkhill,  T. M. Perrine,  F. Plasser,  P. Pokhilko,  S. Prager,  
 A. Prociuk,  E. Ramos,  D. R. Rehn,  F. Rob,  M. Schneider,  N. Sergueev,  
 S. M. Sharada,  S. Sharma,  D. W. Small,  T. Stauch,  T. Stein,  
 Yu-Chuan Su,  A. J. W. Thom,  A. Tkatchenko,  T. Tsuchimochi,  N. M. Tubman,  
 L. Vogt,  M. L. Vidal,  O. Vydrov,  M. A. Watson,  J. Wenzel,  
 M. de Wergifosse,  T. A. Wesolowski,  A. White,  J. Witte,  A. Yamada,  
 Jun Yang,  K. Yao,  S. Yeganeh,  S. R. Yost,  Zhi-Qiang You,  A. Zech,  
 Igor Ying Zhang,  Xing Zhang,  Yan Zhao,  Ying Zhu,  B. R. Brooks,  
 G. K. L. Chan,  C. J. Cramer,  M. S. Gordon,  W. J. Hehre,  A. Klamt,  
 M. W. Schmidt,  C. D. Sherrill,  D. G. Truhlar,  A. Aspuru-Guzik,  R. Baer,  
 A. T. Bell,  N. A. Besley,  Jeng-Da Chai,  R. A. DiStasio Jr.,  A. Dreuw,  
 B. D. Dunietz,  T. R. Furlani,  Chao-Ping Hsu,  Yousung Jung,  Jing Kong,  
 D. S. Lambrecht,  WanZhen Liang,  C. Ochsenfeld,  V. A. Rassolov,  
 L. V. Slipchenko,  J. E. Subotnik,  T. Van Voorhis,  J. M. Herbert,  
 A. I. Krylov,  P. M. W. Gill,  M. Head-Gordon

 Contributors to earlier versions of Q-Chem not listed above: 
 R. D. Adamson,  B. Austin,  J. Baker,  G. J. O. Beran,  K. Brandhorst,  
 S. T. Brown,  E. F. C. Byrd,  A. K. Chakraborty,  C.-L. Cheng,  
 Siu Hung Chien,  D. M. Chipman,  D. L. Crittenden,  H. Dachsel,  
 R. J. Doerksen,  A. D. Dutoi,  L. Fusti-Molnar,  W. A. Goddard III,  
 A. Golubeva-Zadorozhnaya,  S. R. Gwaltney,  G. Hawkins,  A. Heyden,  
 S. Hirata,  G. Kedziora,  F. J. Keil,  C. Kelley,  Jihan Kim,  R. A. King,  
 R. Z. Khaliullin,  P. P. Korambath,  W. Kurlancheek,  A. M. Lee,  M. S. Lee,  
 S. V. Levchenko,  Ching Yeh Lin,  D. Liotard,  R. C. Lochan,  I. Lotan,  
 P. E. Maslen,  N. Nair,  D. P. O'Neill,  D. Neuhauser,  E. Neuscamman,  
 C. M. Oana,  R. Olson,  B. Peters,  R. Peverati,  P. A. Pieniazek,  
 Y. M. Rhee,  J. Ritchie,  M. A. Rohrdanz,  E. Rosta,  N. J. Russ,  
 H. F. Schaefer III,  N. E. Schultz,  N. Shenvi,  A. C. Simmonett,  A. Sodt,  
 D. Stuck,  K. S. Thanthiriwatte,  V. Vanovschi,  Tao Wang,  A. Warshel,  
 C. F. Williams,  Q. Wu,  X. Xu,  W. Zhang

 Please cite Q-Chem as follows:
 Y. Shao et al., Mol. Phys. 113, 184-215 (2015)
 DOI: 10.1080/00268976.2014.952696

 Q-Chem 5.1.0 for Intel X86 EM64T Linux

 Parts of Q-Chem use Armadillo 8.300.2 (Tropical Shenanigans).
 http://arma.sourceforge.net/

 Q-Chem begins on Tue Feb 19 12:30:08 2019  

Host: cori01
0

     Scratch files written to /tmp/qchem61884//
 Jun2518 |scratch|qcdevops|jenkins|workspace|build_RNUM -1
Processing $rem in /global/common/cori/software/qchem/5.1/config/preferences.
 MEM_TOTAL  96000 
The previous job contains 0 fragments, simply inherited here

Checking the input file for inconsistencies... 	...done.

--------------------------------------------------------------
User input:
--------------------------------------------------------------

$molecule
read
$end

[...]

 Mode:                16                     17                     18
 Frequency:      1026.37                1072.48                1106.22
 Force Cnst:      1.0445                 1.0351                 1.4291
 Red. Mass:       1.6828                 1.5274                 1.9821
 IR Active:          YES                    YES                    YES
 IR Intens:        3.984                  0.969                  3.711
 Raman Active:       YES                    YES                    YES
               X      Y      Z        X      Y      Z        X      Y      Z
 C          0.019 -0.005 -0.016   -0.101 -0.053 -0.025   -0.063  0.054 -0.008
 C          0.037  0.087 -0.075    0.073 -0.018  0.049   -0.000  0.093 -0.014
 C         -0.027 -0.062  0.113   -0.064  0.043  0.005    0.033 -0.070  0.053
 C         -0.057  0.054 -0.049    0.115  0.003 -0.003    0.156 -0.091 -0.066
 C          0.096 -0.042  0.024   -0.063 -0.016  0.008   -0.032  0.086  0.079
 C         -0.086  0.019  0.026    0.006  0.030 -0.036   -0.048 -0.084 -0.055
 H          0.095 -0.318  0.590    0.243 -0.111 -0.238    0.058 -0.064  0.139
 H          0.010 -0.016 -0.078   -0.075  0.296  0.123   -0.111  0.294 -0.232
 H          0.243 -0.107 -0.325    0.516  0.146 -0.083   -0.187  0.102  0.099
 H         -0.022 -0.085 -0.144   -0.014 -0.295  0.072   -0.019  0.322 -0.267
 H          0.045  0.104 -0.018    0.185  0.095  0.144   -0.122 -0.208  0.075
 H          0.076 -0.146 -0.300    0.165  0.005 -0.004   -0.049 -0.083 -0.147
 H         -0.015 -0.060  0.128   -0.183 -0.100  0.168    0.184 -0.118  0.070
 H          0.140 -0.021  0.038   -0.131 -0.077  0.164   -0.396 -0.133  0.133
 H         -0.074  0.022 -0.102   -0.114  0.083 -0.140   -0.056 -0.099  0.318
 H         -0.274  0.022 -0.075   -0.198  0.085 -0.175    0.169  0.130 -0.055
 TransDip   0.045  0.033 -0.031    0.016 -0.027 -0.002    0.037  0.049  0.010

 Mode:                19                     20                     21
 Frequency:      1150.28                1168.61                1204.36
 Force Cnst:      0.9392                 1.0727                 1.0462
 Red. Mass:       1.2047                 1.3332                 1.2242
 IR Active:          YES                    YES                    YES
 IR Intens:        1.935                  2.084                 11.837
 Raman Active:       YES                    YES                    YES
               X      Y      Z        X      Y      Z        X      Y      Z
 C          0.041  0.010 -0.018    0.031  0.002 -0.022    0.036  0.008 -0.001
 C          0.011 -0.014  0.017   -0.005  0.054 -0.002   -0.020 -0.030  0.036
 C         -0.055 -0.018 -0.006    0.010 -0.027  0.058   -0.012  0.079 -0.063
 C          0.028 -0.045  0.003   -0.082 -0.048 -0.003   -0.018 -0.010 -0.021
 C         -0.049  0.021  0.040    0.008  0.080  0.023    0.017  0.048 -0.019
 C          0.005  0.066  0.011    0.026 -0.061 -0.027    0.015 -0.022  0.027
 H         -0.031  0.031  0.003   -0.079  0.206 -0.356   -0.029 -0.021  0.117
 H          0.044 -0.094 -0.031    0.141 -0.377  0.516    0.009 -0.026 -0.154
 H          0.041 -0.343 -0.234    0.262  0.150 -0.082   -0.189 -0.327 -0.075
 H         -0.045 -0.071 -0.114    0.001  0.044 -0.056    0.010 -0.091  0.248
 H          0.050  0.222 -0.184   -0.021 -0.011  0.012    0.107 -0.348  0.500
 H          0.001 -0.051  0.172    0.030 -0.101 -0.186    0.164  0.065 -0.310
 H          0.264  0.216 -0.358    0.080 -0.118  0.119   -0.063 -0.125  0.177
 H         -0.223 -0.099  0.182   -0.098  0.042 -0.140   -0.098 -0.027  0.038
 H          0.420 -0.098  0.161   -0.040 -0.040  0.131    0.125 -0.074  0.138
 H         -0.296  0.041 -0.134   -0.137  0.209 -0.263   -0.258  0.102 -0.183
 TransDip   0.015 -0.037  0.019    0.003  0.025 -0.039   -0.026 -0.050 -0.095

 Mode:                22                     23                     24
 Frequency:      1240.40                1262.69                1273.18
 Force Cnst:      1.1028                 1.6133                 1.4125
 Red. Mass:       1.2165                 1.7174                 1.4790
 IR Active:          YES                    YES                    YES
 IR Intens:        9.187                  6.649                  1.025
 Raman Active:       YES                    YES                    YES
               X      Y      Z        X      Y      Z        X      Y      Z
 C          0.013 -0.015 -0.019    0.043 -0.087  0.176    0.040  0.018 -0.024
 C         -0.056  0.009  0.024    0.023  0.011 -0.090   -0.111  0.005  0.010
 C          0.026 -0.022 -0.040   -0.012 -0.009  0.038    0.044 -0.007  0.006
 C          0.022  0.021  0.065   -0.041  0.021 -0.024   -0.012 -0.057  0.030
 C          0.008  0.053 -0.024    0.070  0.021 -0.044    0.037  0.032 -0.101
 C          0.024 -0.046 -0.020   -0.060  0.012  0.010    0.068  0.013  0.065
 H          0.033 -0.109  0.162   -0.179  0.352 -0.540   -0.048  0.000  0.100
 H         -0.015  0.076 -0.164   -0.085  0.262 -0.445    0.030 -0.065 -0.077
 H          0.110 -0.108 -0.159    0.033  0.031 -0.086    0.222  0.115 -0.107
 H          0.017 -0.009  0.055   -0.005 -0.041 -0.092    0.027  0.076  0.022
 H         -0.111  0.135 -0.318    0.010  0.102 -0.074   -0.097 -0.065 -0.041
 H         -0.272  0.113  0.398    0.055 -0.048 -0.042   -0.180  0.032  0.009
 H         -0.228 -0.264  0.411   -0.132 -0.083  0.193   -0.066  0.029 -0.023
 H          0.048  0.105 -0.192   -0.111 -0.115  0.175   -0.368 -0.307  0.594
 H          0.107 -0.088  0.191    0.183 -0.084  0.101   -0.271  0.163 -0.336
 H         -0.129  0.149 -0.211   -0.043 -0.010  0.029   -0.042 -0.025  0.028
 TransDip  -0.048 -0.056  0.063   -0.026  0.070 -0.036   -0.032 -0.007 -0.002

 Mode:                25                     26                     27
 Frequency:      1315.77                1326.03                1355.04
 Force Cnst:      1.6876                 1.5914                 1.8126
 Red. Mass:       1.6545                 1.5361                 1.6755
 IR Active:          YES                    YES                    YES
 IR Intens:        6.027                  4.951                  3.690
 Raman Active:       YES                    YES                    YES
               X      Y      Z        X      Y      Z        X      Y      Z
 C          0.023 -0.075  0.012    0.004  0.006 -0.048   -0.037  0.006 -0.036
 C         -0.043  0.164  0.121   -0.020 -0.004  0.097    0.175  0.101 -0.005
 C          0.007 -0.029 -0.016    0.001  0.003 -0.017   -0.036 -0.020 -0.032
 C          0.006  0.022 -0.028   -0.035 -0.006  0.013   -0.009 -0.021  0.037
 C         -0.036 -0.037  0.039    0.064  0.010 -0.032    0.054  0.028 -0.067
 C          0.037 -0.030 -0.016   -0.117  0.058 -0.108   -0.055 -0.027  0.026
 H          0.018  0.067 -0.294    0.059 -0.060  0.024    0.045  0.001 -0.094
 H         -0.013  0.089 -0.193    0.041 -0.136  0.110    0.039 -0.081  0.350
 H          0.104 -0.508 -0.437    0.349 -0.039 -0.127   -0.544 -0.378  0.067
 H         -0.003 -0.022  0.049   -0.002  0.027  0.093   -0.012 -0.219  0.087
 H         -0.064 -0.131  0.038    0.041 -0.052  0.085   -0.001  0.091 -0.131
 H         -0.123  0.040 -0.083    0.007  0.007 -0.041   -0.091  0.013  0.193
 H          0.101  0.094 -0.169   -0.057 -0.072  0.129   -0.169 -0.047  0.159
 H          0.131  0.088 -0.150   -0.073 -0.109  0.187   -0.195 -0.158  0.227
 H         -0.316  0.118 -0.164    0.349 -0.140  0.300   -0.208  0.029 -0.041
 H          0.234 -0.006  0.075    0.504 -0.218  0.373    0.026 -0.048  0.090
 TransDip   0.011  0.001 -0.078    0.036 -0.049  0.036   -0.048 -0.034  0.018

 Mode:                28                     29                     30
 Frequency:      1404.67                1461.35                1476.94
 Force Cnst:      1.3219                 1.3645                 1.3909
 Red. Mass:       1.1371                 1.0845                 1.0823
 IR Active:          YES                    YES                    YES
 IR Intens:        3.372                  8.850                  5.893
 Raman Active:       YES                    YES                    YES
               X      Y      Z        X      Y      Z        X      Y      Z
 C          0.016  0.001 -0.010    0.006 -0.021 -0.007    0.003 -0.006 -0.011
 C         -0.027  0.026  0.014    0.007  0.006 -0.016   -0.009 -0.004  0.006
 C         -0.048 -0.041 -0.048   -0.020 -0.070 -0.018    0.001  0.000  0.001
 C         -0.007  0.017  0.046    0.004 -0.009 -0.014    0.005 -0.002  0.004
 C         -0.002 -0.006 -0.027   -0.005  0.005  0.004    0.065 -0.022  0.038
 C          0.014 -0.012  0.008   -0.007 -0.005  0.009   -0.008 -0.009  0.011
 H         -0.030  0.012  0.014   -0.163  0.040  0.045   -0.060  0.000  0.045
 H          0.020  0.008  0.009    0.012  0.176  0.090    0.008  0.065  0.032
 H         -0.022 -0.058 -0.057   -0.002  0.034  0.008    0.028  0.009 -0.004
 H         -0.097  0.466 -0.237   -0.086  0.399  0.506   -0.001  0.018  0.006
 H          0.236  0.024  0.106    0.527  0.293  0.058    0.013 -0.006  0.019
 H          0.650 -0.266  0.323   -0.275  0.126 -0.143    0.002  0.010 -0.021
 H         -0.097 -0.055  0.086    0.066 -0.029 -0.022   -0.434  0.503 -0.015
 H          0.022 -0.002  0.025    0.029  0.016  0.035   -0.444 -0.215 -0.468
 H         -0.069  0.024 -0.066    0.037 -0.016 -0.063    0.111 -0.039 -0.151
 H          0.029  0.017 -0.001    0.026  0.070 -0.023    0.104  0.166 -0.037
 TransDip  -0.015 -0.049  0.029    0.029  0.089 -0.016   -0.070  0.025 -0.022

 Mode:                31                     32                     33
 Frequency:      1504.05                1525.99                2056.03
 Force Cnst:      1.4706                 1.5264                 2.6338
 Red. Mass:       1.1033                 1.1126                 1.0575
 IR Active:          YES                    YES                    YES
 IR Intens:        5.402                  0.900                  9.157
 Raman Active:       YES                    YES                    YES
               X      Y      Z        X      Y      Z        X      Y      Z
 C         -0.036  0.047  0.039    0.028 -0.033 -0.036   -0.002 -0.005 -0.004
 C          0.005  0.004 -0.009    0.008 -0.008  0.019    0.003  0.002  0.006
 C         -0.003 -0.010 -0.004    0.006  0.024  0.004   -0.005 -0.038  0.030
 C          0.002 -0.002  0.004   -0.000  0.003 -0.005   -0.021 -0.039 -0.008
 C         -0.010  0.002 -0.005   -0.024  0.007 -0.010   -0.002 -0.001 -0.005
 C         -0.037 -0.024  0.036   -0.052 -0.024  0.035    0.001  0.000 -0.000
 H          0.497 -0.123 -0.170   -0.377  0.085  0.136   -0.001 -0.018  0.006
 H         -0.071 -0.456 -0.263    0.060  0.339  0.215   -0.003  0.004  0.004
 H         -0.028  0.004  0.008    0.005 -0.032  0.015   -0.003 -0.020  0.000
 H         -0.013  0.057  0.068    0.029 -0.133 -0.124   -0.006  0.040 -0.118
 H          0.073  0.043  0.006   -0.155 -0.083 -0.014   -0.040  0.046 -0.084
 H         -0.029  0.020 -0.003    0.045 -0.028  0.026    0.356  0.916 -0.050
 H          0.037 -0.051  0.004    0.119 -0.142  0.001   -0.009 -0.010  0.002
 H          0.042  0.023  0.049    0.116  0.061  0.127    0.006 -0.001  0.005
 H          0.232 -0.090 -0.362    0.283 -0.114 -0.403   -0.003  0.000 -0.003
 H          0.214  0.384 -0.076    0.273  0.430 -0.066   -0.001  0.000 -0.001
 TransDip   0.064 -0.018 -0.034    0.022  0.018 -0.012   -0.011  0.048 -0.083

 Mode:                34                     35                     36
 Frequency:      3066.74                3073.90                3077.98
 Force Cnst:      5.9436                 5.9412                 5.9216
 Red. Mass:       1.0726                 1.0672                 1.0609
 IR Active:          YES                    YES                    YES
 IR Intens:       16.536                 59.114                 42.189
 Raman Active:       YES                    YES                    YES
               X      Y      Z        X      Y      Z        X      Y      Z
 C          0.007 -0.015 -0.009    0.005 -0.008 -0.005    0.017 -0.044 -0.028
 C         -0.027  0.033 -0.046   -0.016  0.019 -0.027    0.002 -0.004  0.007
 C          0.003  0.004  0.002    0.003  0.005  0.004   -0.002 -0.003 -0.002
 C         -0.000  0.000 -0.000   -0.001 -0.001 -0.001   -0.000  0.000 -0.000
 C          0.014  0.002  0.010   -0.044 -0.005 -0.034    0.018  0.003  0.016
 C         -0.023 -0.018  0.021    0.018  0.015 -0.014    0.020  0.015 -0.020
 H          0.094  0.189  0.087    0.049  0.097  0.043    0.267  0.545  0.249
 H         -0.184 -0.009  0.030   -0.110 -0.005  0.018   -0.464 -0.022  0.081
 H          0.312 -0.393  0.554    0.188 -0.232  0.328   -0.032  0.044 -0.067
 H         -0.067 -0.006 -0.000   -0.080 -0.008  0.001    0.051  0.006  0.000
 H          0.030 -0.038 -0.035    0.041 -0.051 -0.050   -0.026  0.032  0.030
 H          0.002 -0.002  0.006    0.002  0.000  0.006    0.001  0.001 -0.000
 H         -0.110 -0.116 -0.143    0.351  0.373  0.461   -0.158 -0.168 -0.209
 H         -0.049  0.093  0.018    0.164 -0.310 -0.057   -0.061  0.119  0.021
 H          0.135  0.379  0.028   -0.109 -0.295 -0.023   -0.113 -0.317 -0.023
 H          0.138 -0.164 -0.275   -0.098  0.114  0.189   -0.126  0.148  0.249
 TransDip  -0.087  0.025 -0.093   -0.039  0.126 -0.208    0.156 -0.097 -0.098

 Mode:                37                     38                     39
 Frequency:      3084.79                3093.44                3116.47
 Force Cnst:      5.9587                 5.9949                 6.3247
 Red. Mass:       1.0628                 1.0633                 1.1053
 IR Active:          YES                    YES                    YES
 IR Intens:       43.117                 16.271                  7.300
 Raman Active:       YES                    YES                    YES
               X      Y      Z        X      Y      Z        X      Y      Z
 C          0.009 -0.022 -0.014   -0.003  0.017  0.011    0.002  0.000  0.000
 C          0.012 -0.012  0.019   -0.013  0.017 -0.024    0.000 -0.001  0.000
 C         -0.014 -0.026 -0.020   -0.019 -0.040 -0.031   -0.001  0.001  0.000
 C         -0.000 -0.000 -0.001    0.001  0.000  0.001    0.000  0.000  0.000
 C         -0.025 -0.003 -0.020    0.010  0.002  0.009   -0.012  0.045  0.017
 C         -0.023 -0.015  0.023    0.014  0.010 -0.013    0.005 -0.068 -0.043
 H          0.129  0.264  0.121   -0.100 -0.208 -0.097   -0.004 -0.007 -0.001
 H         -0.222 -0.009  0.041    0.133  0.007 -0.025   -0.015  0.001  0.003
 H         -0.127  0.154 -0.222    0.149 -0.185  0.259   -0.004  0.006 -0.007
 H          0.376  0.043  0.001    0.530  0.065  0.004    0.007  0.001  0.001
 H         -0.205  0.259  0.242   -0.305  0.394  0.363    0.004 -0.002 -0.004
 H         -0.001  0.000 -0.001   -0.005 -0.009  0.001   -0.001 -0.001  0.000
 H          0.199  0.210  0.262   -0.088 -0.092 -0.116   -0.106 -0.099 -0.129
 H          0.085 -0.162 -0.029   -0.029  0.056  0.010    0.245 -0.428 -0.070
 H          0.122  0.334  0.025   -0.077 -0.206 -0.014    0.205  0.532  0.025
 H          0.144 -0.167 -0.283   -0.086  0.095  0.161   -0.258  0.272  0.488
 TransDip  -0.078 -0.194  0.026   -0.025  0.026 -0.124   -0.031 -0.055 -0.059

 Mode:                40                     41                     42
 Frequency:      3133.31                3136.50                3173.12
 Force Cnst:      6.3917                 6.4017                 6.5917
 Red. Mass:       1.1050                 1.1045                 1.1112
 IR Active:          YES                    YES                    YES
 IR Intens:       31.145                 26.670                 12.269
 Raman Active:       YES                    YES                    YES
               X      Y      Z        X      Y      Z        X      Y      Z
 C         -0.069 -0.033 -0.004   -0.050 -0.024 -0.004   -0.002 -0.000 -0.000
 C         -0.001  0.001 -0.001   -0.002  0.000 -0.002   -0.002  0.001 -0.000
 C          0.003 -0.002 -0.002   -0.002 -0.001 -0.000   -0.088  0.027  0.032
 C         -0.000  0.000 -0.000   -0.001 -0.001 -0.000    0.000 -0.000 -0.000
 C         -0.009  0.042  0.017    0.012 -0.057 -0.024    0.000  0.003  0.001
 C         -0.001  0.024  0.016    0.004 -0.034 -0.024    0.000  0.002  0.001
 H          0.174  0.383  0.178    0.130  0.289  0.135    0.003  0.004  0.002
 H          0.647  0.012 -0.123    0.466  0.009 -0.087    0.021 -0.001 -0.006
 H          0.010 -0.012  0.020    0.012 -0.014  0.023    0.009 -0.011  0.014
 H         -0.022 -0.002 -0.001    0.032  0.006  0.002    0.739  0.101  0.017
 H         -0.017  0.022  0.021   -0.002  0.006  0.005    0.313 -0.424 -0.392
 H         -0.001  0.003  0.000    0.002  0.006  0.000   -0.016  0.003 -0.002
 H         -0.120 -0.115 -0.151    0.167  0.158  0.209   -0.008 -0.008 -0.011
 H          0.223 -0.388 -0.060   -0.295  0.515  0.080    0.013 -0.021 -0.003
 H         -0.070 -0.186 -0.008    0.099  0.257  0.010   -0.007 -0.019 -0.002
 H          0.094 -0.098 -0.181   -0.140  0.149  0.270    0.010 -0.007 -0.015
 TransDip  -0.167  0.060  0.020   -0.033 -0.149 -0.063   -0.091  0.051  0.043

 STANDARD THERMODYNAMIC QUANTITIES AT   298.15 K  AND     1.00 ATM

   This Molecule has  1 Imaginary Frequencies
   Zero point vibrational energy:       89.328 kcal/mol

   Atom    1 Element C  Has Mass   12.00000
   Atom    2 Element C  Has Mass   12.00000
   Atom    3 Element C  Has Mass   12.00000
   Atom    4 Element C  Has Mass   12.00000
   Atom    5 Element C  Has Mass   12.00000
   Atom    6 Element C  Has Mass   12.00000
   Atom    7 Element H  Has Mass    1.00783
   Atom    8 Element H  Has Mass    1.00783
   Atom    9 Element H  Has Mass    1.00783
   Atom   10 Element H  Has Mass    1.00783
   Atom   11 Element H  Has Mass    1.00783
   Atom   12 Element H  Has Mass    1.00783
   Atom   13 Element H  Has Mass    1.00783
   Atom   14 Element H  Has Mass    1.00783
   Atom   15 Element H  Has Mass    1.00783
   Atom   16 Element H  Has Mass    1.00783
   Molecular Mass:    82.078300 amu
   Principal axes and moments of inertia in amu*Bohr^2:
                             1           2           3
    Eigenvalues --      357.62878   421.01023   472.59015
          X               0.97333    -0.18661    -0.13342
          Y               0.10738    -0.14335     0.98383
          Z               0.20272     0.97192     0.11949
   Rotational Symmetry Number is   1
   The Molecule is an Asymmetric Top
   Translational Enthalpy:        0.889 kcal/mol
   Rotational Enthalpy:           0.889 kcal/mol
   Vibrational Enthalpy:         90.592 kcal/mol
   gas constant (RT):             0.592 kcal/mol
   Translational Entropy:        39.129  cal/mol.K
   Rotational Entropy:           25.767  cal/mol.K
   Vibrational Entropy:           5.898  cal/mol.K

   Total Enthalpy:               92.962 kcal/mol
   Total Entropy:                70.794  cal/mol.K
Archival summary:
1\1\nid00463\FREQ\ProcedureUnspecified\BasisUnspecified\610\cgrambow\TueFeb1913:28:582019TueFeb1913:28:582019\0\\#,FREQ,ProcedureUnspecified,BasisUnspecified,\\0,1\C\H,1,1.09376\C,1,1.5261,2,120.649\H,3,1.09057,1,114.139,2,-53.2328,0\H,3,1.0926,1,115.708,2,74.6715,0\C,1,1.52782,2,115.269,3,123.693,0\H,6,1.09148,1,112.77,2,64.8069,0\H,6,1.09207,1,111.267,2,-56.3073,0\C,1,1.5324,2,115.398,3,-111.893,0\H,9,1.09024,1,117.823,2,-82.3538,0\H,9,1.09025,1,113.267,2,51.2543,0\H,9,1.26617,1,109.665,2,157.582,0\C,12,1.30541,9,108.59,1,5.75704,0\C,13,1.52209,12,107.191,9,65.7976,0\H,14,1.08992,13,112.719,12,49.3394,0\H,14,1.09385,13,105.636,12,165.421,0\\\@

 Total job time:  3252.02s(wall), 11741.56s(cpu) 
 Tue Feb 19 13:28:58 2019

        *************************************************************
        *                                                           *
        *  Thank you very much for using Q-Chem.  Have a nice day.  *
        *                                                           *
        *************************************************************


