
Running Job 1 of 2 prod_optfreq1122.in
qchem prod_optfreq1122.in_1037.0 /tmp/qchem1037/ 1
/global/common/cori/software/qchem/5.1/exe/qcprog.exe prod_optfreq1122.in_1037.0 /tmp/qchem1037/
Check license passed

                  Welcome to Q-Chem
     A Quantum Leap Into The Future Of Chemistry


 Q-Chem 5.1, Q-Chem, Inc., Pleasanton, CA (2018)

 Yihan Shao,  Zhengting Gan,  E. Epifanovsky,  A. T. B. Gilbert,  M. Wormit,  
 J. Kussmann,  A. W. Lange,  A. Behn,  Jia Deng,  Xintian Feng,  D. Ghosh,  
 M. Goldey,  P. R. Horn,  L. D. Jacobson,  I. Kaliman,  T. Kus,  A. Landau,  
 Jie Liu,  E. I. Proynov,  R. M. Richard,  R. P. Steele,  E. J. Sundstrom,  
 H. L. Woodcock III,  P. M. Zimmerman,  D. Zuev,  B. Albrecht,  E. Alguire,  
 S. A. Baeppler,  D. Barton,  Z. Benda,  Y. A. Bernard,  E. J. Berquist,  
 K. B. Bravaya,  H. Burton,  D. Casanova,  Chun-Min Chang,  Yunqing Chen,  
 A. Chien,  K. D. Closser,  M. P. Coons,  S. Coriani,  S. Dasgupta,  
 A. L. Dempwolff,  M. Diedenhofen,  Hainam Do,  R. G. Edgar,  Po-Tung Fang,  
 S. Faraji,  S. Fatehi,  Qingguo Feng,  K. D. Fenk,  J. Fosso-Tande,  
 Qinghui Ge,  A. Ghysels,  G. Gidofalvi,  J. Gomes,  J. Gonthier,  A. Gunina,  
 D. Hait,  M. W. D. Hanson-Heine,  P. H. P. Harbach,  A. W. Hauser,  
 J. E. Herr,  E. G. Hohenstein,  Z. C. Holden,  Kerwin Hui,  B. C. Huynh,  
 T.-C. Jagau,  Hyunjun Ji,  B. Kaduk,  K. Khistyaev,  Jaehoon Kim,  
 P. Klunzinger,  K. Koh,  D. Kosenkov,  L. Koulias,  T. Kowalczyk,  
 C. M. Krauter,  A. Kunitsa,  Ka Un Lao,  A. Laurent,  K. V. Lawler,  
 Joonho Lee,  D. Lefrancois,  S. Lehtola,  D. S. Levine,  Yi-Pei Li,  
 You-Sheng Lin,  Fenglai Liu,  E. Livshits,  A. Luenser,  P. Manohar,  
 E. Mansoor,  S. F. Manzer,  Shan-Ping Mao,  Yuezhi Mao,  N. Mardirossian,  
 A. V. Marenich,  T. Markovich,  L. A. Martinez-Martinez,  S. A. Maurer,  
 N. J. Mayhall,  S. C. McKenzie,  J.-M. Mewes,  A. F. Morrison,  
 J. W. Mullinax,  K. Nanda,  T. S. Nguyen-Beck,  R. Olivares-Amaya,  
 J. A. Parkhill,  T. M. Perrine,  F. Plasser,  P. Pokhilko,  S. Prager,  
 A. Prociuk,  E. Ramos,  D. R. Rehn,  F. Rob,  M. Schneider,  N. Sergueev,  
 S. M. Sharada,  S. Sharma,  D. W. Small,  T. Stauch,  T. Stein,  
 Yu-Chuan Su,  A. J. W. Thom,  A. Tkatchenko,  T. Tsuchimochi,  N. M. Tubman,  
 L. Vogt,  M. L. Vidal,  O. Vydrov,  M. A. Watson,  J. Wenzel,  
 M. de Wergifosse,  T. A. Wesolowski,  A. White,  J. Witte,  A. Yamada,  
 Jun Yang,  K. Yao,  S. Yeganeh,  S. R. Yost,  Zhi-Qiang You,  A. Zech,  
 Igor Ying Zhang,  Xing Zhang,  Yan Zhao,  Ying Zhu,  B. R. Brooks,  
 G. K. L. Chan,  C. J. Cramer,  M. S. Gordon,  W. J. Hehre,  A. Klamt,  
 M. W. Schmidt,  C. D. Sherrill,  D. G. Truhlar,  A. Aspuru-Guzik,  R. Baer,  
 A. T. Bell,  N. A. Besley,  Jeng-Da Chai,  R. A. DiStasio Jr.,  A. Dreuw,  
 B. D. Dunietz,  T. R. Furlani,  Chao-Ping Hsu,  Yousung Jung,  Jing Kong,  
 D. S. Lambrecht,  WanZhen Liang,  C. Ochsenfeld,  V. A. Rassolov,  
 L. V. Slipchenko,  J. E. Subotnik,  T. Van Voorhis,  J. M. Herbert,  
 A. I. Krylov,  P. M. W. Gill,  M. Head-Gordon

 Contributors to earlier versions of Q-Chem not listed above: 
 R. D. Adamson,  B. Austin,  J. Baker,  G. J. O. Beran,  K. Brandhorst,  
 S. T. Brown,  E. F. C. Byrd,  A. K. Chakraborty,  C.-L. Cheng,  
 Siu Hung Chien,  D. M. Chipman,  D. L. Crittenden,  H. Dachsel,  
 R. J. Doerksen,  A. D. Dutoi,  L. Fusti-Molnar,  W. A. Goddard III,  
 A. Golubeva-Zadorozhnaya,  S. R. Gwaltney,  G. Hawkins,  A. Heyden,  
 S. Hirata,  G. Kedziora,  F. J. Keil,  C. Kelley,  Jihan Kim,  R. A. King,  
 R. Z. Khaliullin,  P. P. Korambath,  W. Kurlancheek,  A. M. Lee,  M. S. Lee,  
 S. V. Levchenko,  Ching Yeh Lin,  D. Liotard,  R. C. Lochan,  I. Lotan,  
 P. E. Maslen,  N. Nair,  D. P. O'Neill,  D. Neuhauser,  E. Neuscamman,  
 C. M. Oana,  R. Olson,  B. Peters,  R. Peverati,  P. A. Pieniazek,  
 Y. M. Rhee,  J. Ritchie,  M. A. Rohrdanz,  E. Rosta,  N. J. Russ,  
 H. F. Schaefer III,  N. E. Schultz,  N. Shenvi,  A. C. Simmonett,  A. Sodt,  
 D. Stuck,  K. S. Thanthiriwatte,  V. Vanovschi,  Tao Wang,  A. Warshel,  
 C. F. Williams,  Q. Wu,  X. Xu,  W. Zhang

 Please cite Q-Chem as follows:
 Y. Shao et al., Mol. Phys. 113, 184-215 (2015)
 DOI: 10.1080/00268976.2014.952696

 Q-Chem 5.1.0 for Intel X86 EM64T Linux

 Parts of Q-Chem use Armadillo 8.300.2 (Tropical Shenanigans).
 http://arma.sourceforge.net/

 Q-Chem begins on Tue Feb 12 23:20:09 2019  

Host: cori07
0

     Scratch files written to /tmp/qchem1037//
 Jun2518 |scratch|qcdevops|jenkins|workspace|build_RNUM -1
Processing $rem in /global/common/cori/software/qchem/5.1/config/preferences.
 MEM_TOTAL  96000 

Checking the input file for inconsistencies... 	...done.

--------------------------------------------------------------
User input:
--------------------------------------------------------------
$molecule
0 1
C  -1.0083063153  -0.0208340407  -0.0635165754
C   0.4863634476   0.0579269971   0.0039210305
N   1.2961644099  -0.9979750582   0.5235017522
O   0.6135169494  -1.9570498658   0.8959077178
N   1.8287528848   1.9710968842  -0.7610194564
N   1.1424852030   1.1130139170  -0.4231954516
H  -1.4519652615   0.9322944789  -0.3700116672
H  -1.3126106494  -0.8060703065  -0.7705485672
H  -1.3948096685  -0.3075950059   0.9241122173
$end

$rem
JOBTYPE                   OPT
METHOD                    wB97X-D3
BASIS                     def2-TZVP
UNRESTRICTED              TRUE
SCF_ALGORITHM             DIIS
MAX_SCF_CYCLES            100
SCF_CONVERGENCE           8
SYM_IGNORE                TRUE
SYMMETRY                  FALSE
GEOM_OPT_MAX_CYCLES       100
GEOM_OPT_TOL_GRADIENT     100
GEOM_OPT_TOL_DISPLACEMENT 400
GEOM_OPT_TOL_ENERGY       33
WAVEFUNCTION_ANALYSIS     FALSE
$end

--------------------------------------------------------------
 Adding empirical dispersion correction 
 ----------------------------------------------------------------
 Doing -D3(0) with
 s6  =   1.00000
 s8  =   1.00000
 rs6 =   1.28100
 rs8 =   1.09400
 -D3 energy without 3body term =     -0.0018242749 hartrees
 ----------------------------------------------------------------
             Standard Nuclear Orientation (Angstroms)
    I     Atom           X                Y                Z
 ----------------------------------------------------------------
    1      C      -1.0083063153    -0.0208340407    -0.0635165754
    2      C       0.4863634476     0.0579269971     0.0039210305
    3      N       1.2961644099    -0.9979750582     0.5235017522
    4      O       0.6135169494    -1.9570498658     0.8959077178
    5      N       1.8287528848     1.9710968842    -0.7610194564
    6      N       1.1424852030     1.1130139170    -0.4231954516
    7      H      -1.4519652615     0.9322944789    -0.3700116672
    8      H      -1.3126106494    -0.8060703065    -0.7705485672
    9      H      -1.3948096685    -0.3075950059     0.9241122173
 ----------------------------------------------------------------
 Nuclear Repulsion Energy =   208.7144630695 hartrees
 There are       22 alpha and       22 beta electrons
 Requested basis set is def2-TZVP
 There are 78 shells and 204 basis functions

 Total QAlloc Memory Limit  96000 MB
 Mega-Array Size       188 MB
 MEM_STATIC part       192 MB
 A cutoff of  1.0D-11 yielded   2861 shell pairs
 There are     20007 function pairs (     26385 Cartesian)
 
 -------------------------------------------------------
 OpenMP Integral Computing Module                       
 Release: version 1.0, May 2013, Q-Chem Inc. Pittsburgh 
 -------------------------------------------------------
 Integral Job Info:
 Integral job number is                      11
 Integral operator is                         1
 short-range coefficients              19572800
 long-range coefficients              100000000
 Omega coefficients                         250
 if combine SR and LR in K                    1
 Integral screening is                        0
 Integral computing path is                   2
 max size of driver memory is            800000
 size of driver memory is                776718
 size of scratch memory is              4473992
 max col of scratch BK array              10000
 max len of scratch array in speh3          662
 max len of scratch index in speh4           32
 max int batch size is                      520
 min int batch size is                       52
 fixed nKL is                                52
 max L of basis functions is                  3
 order of int derivative is                   0
 number of shells is                         78
 number of basis is                         234
 number of cartesian basis is               234
 number of contracted shell pairs          2861
 number of primitive shell pairs           6888
 maxK2 (contraction) of shell pair           36
 max number of K2 of shell pair               1
 max number of CS2 of shell pair            374
 max number of PS2 of shell pair            888
 mem total for path MDJ                  582388
 -------------------------------------------------------
 Smallest overlap matrix eigenvalue = 1.98E-04

 Scale SEOQF with 1.000000e-01/1.000000e-01/1.000000e+00

 Standard Electronic Orientation quadrupole field applied
 Nucleus-field energy     =    -0.0000000088 hartrees
 Guess from superposition of atomic densities
 Warning:  Energy on first SCF cycle will be non-variational
 SAD guess density has 44.000000 electrons

 -----------------------------------------------------------------------
  General SCF calculation program by
  Eric Jon Sundstrom, Paul Horn, Yuezhi Mao, Dmitri Zuev, Alec White,
  David Stuck, Shaama M.S., Shane Yost, Joonho Lee, David Small,
  Daniel Levine, Susi Lehtola, Hugh Burton, Evgeny Epifanovsky
 -----------------------------------------------------------------------
 Exchange:     0.1957 Hartree-Fock + 1.0000 wB97X-D3 + LR-HF
 Correlation:  1.0000 wB97X-D3
 Using SG-2 standard quadrature grid
 Dispersion:   Grimme D3
 using 16 threads for integral computing
 -------------------------------------------------------
 OpenMP Integral computing Module                
 Release: version 1.0, May 2013, Q-Chem Inc. Pittsburgh 
 -------------------------------------------------------
 using 16 threads for integral computing
 -------------------------------------------------------
 OpenMP Integral computing Module                
 Release: version 1.0, May 2013, Q-Chem Inc. Pittsburgh 
 -------------------------------------------------------
 -------------------------------------------------------
 OpenMP BLAS3 based DFT computing Module                
 Release: version 1.0, May 2013, Q-Chem Inc. Pittsburgh 
 -------------------------------------------------------
 A unrestricted SCF calculation will be
 performed using DIIS
 SCF converges when DIIS error is below 1.0e-08
 ---------------------------------------
  Cycle       Energy         DIIS error
 ---------------------------------------
    1    -318.6202113850      1.94e-02  
    2    -317.2173692473      2.75e-03  
    3    -316.0726498076      8.47e-03  
    4    -317.3535888163      1.09e-03  
    5    -317.3638414643      8.87e-04  
    6    -317.3776923980      1.84e-04  
    7    -317.3789309925      9.43e-05  
    8    -317.3794800087      4.11e-05  
    9    -317.3796214763      2.21e-05  
   10    -317.3796502090      5.19e-06  
   11    -317.3796531488      1.69e-06  
   12    -317.3796533294      6.15e-07  
   13    -317.3796533437      3.13e-07  
   14    -317.3796533474      5.45e-08  
   15    -317.3796533478      2.19e-08  
   16    -317.3796533479      1.16e-08  
   17    -317.3796533479      5.29e-09  Convergence criterion met
 ---------------------------------------
 SCF time:   CPU 519.78s  wall 36.00s 
<S^2> =          0.000000000
 SCF   energy in the final basis set =     -317.3796533479
 Total energy in the final basis set =     -317.3796533479
 No wavefunction analysis requested
 Calculating analytic gradient of the SCF energy
 Gradient of SCF Energy
            1           2           3           4           5           6
    1   0.0006143  -0.0000848   0.0279656  -0.0200445   0.0448670  -0.0484149
    2   0.0015434   0.0103293   0.0043944  -0.0269075   0.0495084  -0.0363194
    3  -0.0001570  -0.0047365   0.0001300   0.0105378  -0.0192217   0.0130497
            7           8           9
    1  -0.0024326  -0.0011624  -0.0013077
    2   0.0035405  -0.0039821  -0.0021070
    3  -0.0011814  -0.0031099   0.0046891
 Max gradient component =       4.951E-02
 RMS gradient           =       2.010E-02
 Gradient time:  CPU 95.59 s  wall 6.86 s
 Geometry Optimization Parameters
   NAtoms,    NIC,     NZ,  NCons,   NDum,   NFix, NCnnct, MaxDiis
        9      47       0       0       0       0       0       0


** GEOMETRY OPTIMIZATION IN DELOCALIZED INTERNAL COORDINATES **
   Searching for a Minimum

   Optimization Cycle:   1

                       Coordinates (Angstroms)
     ATOM                X               Y               Z
      1  C        -1.0083063153   -0.0208340407   -0.0635165754
      2  C         0.4863634476    0.0579269971    0.0039210305
      3  N         1.2961644099   -0.9979750582    0.5235017522
      4  O         0.6135169494   -1.9570498658    0.8959077178
      5  N         1.8287528848    1.9710968842   -0.7610194564
      6  N         1.1424852030    1.1130139170   -0.4231954516
      7  H        -1.4519652615    0.9322944789   -0.3700116672
      8  H        -1.3126106494   -0.8060703065   -0.7705485672
      9  H        -1.3948096685   -0.3075950059    0.9241122173
   Point Group: c1    Number of degrees of freedom:    21


   Energy is   -317.379653348


 Attempting to Generate Delocalized Internal Coordinates

 21 Hessian modes will be used to form the next step
  Hessian Eigenvalues:
     0.009409    0.010561    0.011873    0.072764    0.076757    0.160000
     0.160000    0.160000    0.200000    0.200000    0.249998    0.250000
     0.250000    0.325603    0.337278    0.338321    0.342308    0.412026
     0.634958    0.891502    1.349052

 Minimum Search - Taking Simple RFO Step
 Searching for Lamda that Minimizes Along All modes
 Value Taken    Lamda =  -0.00815150
 Step Taken.  Stepsize is  0.120876

                             Maximum     Tolerance    Cnvgd?
         Gradient           0.048308      0.000100      NO
         Displacement       0.076792      0.000400      NO
         Energy change     *********      0.000000      NO


 New Cartesian Coordinates Obtained by Inverse Iteration

 Displacement from previous Coordinates is:  0.194381
 Adding empirical dispersion correction 
 ----------------------------------------------------------------
 Doing -D3(0) with
 s6  =   1.00000
 s8  =   1.00000
 rs6 =   1.28100
 rs8 =   1.09400
 -D3 energy without 3body term =     -0.0018359177 hartrees
 ----------------------------------------------------------------
             Standard Nuclear Orientation (Angstroms)
    I     Atom           X                Y                Z
 ----------------------------------------------------------------
    1      C      -1.0162446204    -0.0214791366    -0.0634106407
    2      C       0.4717377690     0.0486286257     0.0093990385
    3      N       1.2969349622    -0.9620975782     0.5085426293
    4      O       0.6626908516    -1.9293690890     0.8773341131
    5      N       1.8152376605     1.9231512145    -0.7390441564
    6      N       1.1466091730     1.0843530974    -0.4084731804
    7      H      -1.4392634008     0.9312090796    -0.3767599320
    8      H      -1.3252564135    -0.7989090094    -0.7647190054
    9      H      -1.4128549816    -0.2906792038     0.9162821341
 ----------------------------------------------------------------
 Nuclear Repulsion Energy =   211.6297539964 hartrees
 There are       22 alpha and       22 beta electrons
 Applying Cartesian multipole field
    Component          Value
    ---------          -----
     (2,0,0)        1.00000E-11
     (0,2,0)        2.00000E-11
     (0,0,2)       -3.00000E-10
 Nucleus-field energy     =    -0.0000000083 hartrees
 Requested basis set is def2-TZVP
 There are 78 shells and 204 basis functions
 A cutoff of  1.0D-11 yielded   2870 shell pairs
 There are     20086 function pairs (     26481 Cartesian)
 Smallest overlap matrix eigenvalue = 1.57E-04
 Guess MOs from SCF MO coefficient file
 Reading MOs from coefficient file
 Reading MOs from coefficient file

 -----------------------------------------------------------------------
  General SCF calculation program by
  Eric Jon Sundstrom, Paul Horn, Yuezhi Mao, Dmitri Zuev, Alec White,
  David Stuck, Shaama M.S., Shane Yost, Joonho Lee, David Small,
  Daniel Levine, Susi Lehtola, Hugh Burton, Evgeny Epifanovsky
 -----------------------------------------------------------------------
 Exchange:     0.1957 Hartree-Fock + 1.0000 wB97X-D3 + LR-HF
 Correlation:  1.0000 wB97X-D3
 Using SG-2 standard quadrature grid
 Dispersion:   Grimme D3
 using 16 threads for integral computing
 -------------------------------------------------------
 OpenMP Integral computing Module                
 Release: version 1.0, May 2013, Q-Chem Inc. Pittsburgh 
 -------------------------------------------------------
 using 16 threads for integral computing
 -------------------------------------------------------
 OpenMP Integral computing Module                
 Release: version 1.0, May 2013, Q-Chem Inc. Pittsburgh 
 -------------------------------------------------------
 -------------------------------------------------------
 OpenMP BLAS3 based DFT computing Module                
 Release: version 1.0, May 2013, Q-Chem Inc. Pittsburgh 
 -------------------------------------------------------
 A unrestricted SCF calculation will be
 performed using DIIS
 SCF converges when DIIS error is below 1.0e-08
 ---------------------------------------
  Cycle       Energy         DIIS error
 ---------------------------------------
    1    -317.4704151186      8.71e-04  
    2    -317.3834632053      2.23e-04  
    3    -317.3830496752      3.02e-04  
    4    -317.3843950343      3.61e-05  
    5    -317.3844149470      1.35e-05  
    6    -317.3844184620      5.94e-06  
    7    -317.3844194191      3.06e-06  
    8    -317.3844196088      1.28e-06  
    9    -317.3844196595      3.36e-07  
   10    -317.3844196705      1.11e-07  
   11    -317.3844196723      6.98e-08  
   12    -317.3844196732      3.86e-08  
   13    -317.3844196736      1.72e-08  
   14    -317.3844196736      6.51e-09  Convergence criterion met
 ---------------------------------------
 SCF time:   CPU 457.29s  wall 31.00s 
<S^2> =          0.000000000
 SCF   energy in the final basis set =     -317.3844196736
 Total energy in the final basis set =     -317.3844196736
 No wavefunction analysis requested
 Calculating analytic gradient of the SCF energy
 Gradient of SCF Energy
            1           2           3           4           5           6
    1  -0.0009629   0.0036577   0.0071529  -0.0030491   0.0106481  -0.0177839
    2   0.0000513   0.0076383  -0.0045733   0.0026326   0.0078380  -0.0127475
    3   0.0003664  -0.0032584   0.0029321  -0.0015728  -0.0028109   0.0042288
            7           8           9
    1   0.0001295   0.0000643   0.0001433
    2  -0.0001634  -0.0002272  -0.0004490
    3   0.0000999   0.0000345  -0.0000196
 Max gradient component =       1.778E-02
 RMS gradient           =       5.652E-03
 Gradient time:  CPU 103.38 s  wall 7.09 s
 Geometry Optimization Parameters
   NAtoms,    NIC,     NZ,  NCons,   NDum,   NFix, NCnnct, MaxDiis
        9      47       0       0       0       0       0       0

 Cartesian Hessian Update
 Hessian Updated using BFGS Update


** GEOMETRY OPTIMIZATION IN DELOCALIZED INTERNAL COORDINATES **
   Searching for a Minimum

   Optimization Cycle:   2

                       Coordinates (Angstroms)
     ATOM                X               Y               Z
      1  C        -1.0162446204   -0.0214791366   -0.0634106407
      2  C         0.4717377690    0.0486286257    0.0093990385
      3  N         1.2969349622   -0.9620975782    0.5085426293
      4  O         0.6626908516   -1.9293690890    0.8773341131
      5  N         1.8152376605    1.9231512145   -0.7390441564
      6  N         1.1466091730    1.0843530974   -0.4084731804
      7  H        -1.4392634008    0.9312090796   -0.3767599320
      8  H        -1.3252564135   -0.7989090094   -0.7647190054
      9  H        -1.4128549816   -0.2906792038    0.9162821341
   Point Group: c1    Number of degrees of freedom:    21


   Energy is   -317.384419674

 Hessian Updated using BFGS Update

 20 Hessian modes will be used to form the next step
  Hessian Eigenvalues:
     0.009404    0.010562    0.011885    0.072765    0.076608    0.159812
     0.160029    0.184335    0.200000    0.227790    0.249999    0.263846
     0.325605    0.337592    0.339294    0.343588    0.401571    0.659345
     0.942280    1.229712

 Minimum Search - Taking Simple RFO Step
 Searching for Lamda that Minimizes Along All modes
 Value Taken    Lamda =  -0.00111087
 Step Taken.  Stepsize is  0.076847

                             Maximum     Tolerance    Cnvgd?
         Gradient           0.010686      0.000100      NO
         Displacement       0.047537      0.000400      NO
         Energy change     -0.004766      0.000000      NO


 New Cartesian Coordinates Obtained by Inverse Iteration

 Displacement from previous Coordinates is:  0.129841
 Adding empirical dispersion correction 
 ----------------------------------------------------------------
 Doing -D3(0) with
 s6  =   1.00000
 s8  =   1.00000
 rs6 =   1.28100
 rs8 =   1.09400
 -D3 energy without 3body term =     -0.0018463934 hartrees
 ----------------------------------------------------------------
             Standard Nuclear Orientation (Angstroms)
    I     Atom           X                Y                Z
 ----------------------------------------------------------------
    1      C      -1.0217462118    -0.0164513823    -0.0672096059
    2      C       0.4647468753     0.0388575453     0.0090018850
    3      N       1.2907547094    -0.9627505817     0.4976118737
    4      O       0.7098118697    -1.9501252614     0.8946732555
    5      N       1.8004442226     1.9209300932    -0.7315214895
    6      N       1.1519394649     1.0775430137    -0.4027840424
    7      H      -1.4311647440     0.9400996062    -0.3857955392
    8      H      -1.3392971955    -0.7905683398    -0.7666659908
    9      H      -1.4258979906    -0.2727266931     0.9118406536
 ----------------------------------------------------------------
 Nuclear Repulsion Energy =   211.5705321394 hartrees
 There are       22 alpha and       22 beta electrons
 Applying Cartesian multipole field
    Component          Value
    ---------          -----
     (2,0,0)        1.00000E-11
     (0,2,0)        2.00000E-11
     (0,0,2)       -3.00000E-10
 Nucleus-field energy     =    -0.0000000083 hartrees
 Requested basis set is def2-TZVP
 There are 78 shells and 204 basis functions
 A cutoff of  1.0D-11 yielded   2865 shell pairs
 There are     20041 function pairs (     26425 Cartesian)
 Smallest overlap matrix eigenvalue = 1.46E-04
 Guess MOs from SCF MO coefficient file
 Reading MOs from coefficient file
 Reading MOs from coefficient file

 -----------------------------------------------------------------------
  General SCF calculation program by
  Eric Jon Sundstrom, Paul Horn, Yuezhi Mao, Dmitri Zuev, Alec White,
  David Stuck, Shaama M.S., Shane Yost, Joonho Lee, David Small,
  Daniel Levine, Susi Lehtola, Hugh Burton, Evgeny Epifanovsky
 -----------------------------------------------------------------------
 Exchange:     0.1957 Hartree-Fock + 1.0000 wB97X-D3 + LR-HF
 Correlation:  1.0000 wB97X-D3
 Using SG-2 standard quadrature grid
 Dispersion:   Grimme D3
 using 16 threads for integral computing
 -------------------------------------------------------
 OpenMP Integral computing Module                
 Release: version 1.0, May 2013, Q-Chem Inc. Pittsburgh 
 -------------------------------------------------------
 using 16 threads for integral computing
 -------------------------------------------------------
 OpenMP Integral computing Module                
 Release: version 1.0, May 2013, Q-Chem Inc. Pittsburgh 
 -------------------------------------------------------
 -------------------------------------------------------
 OpenMP BLAS3 based DFT computing Module                
 Release: version 1.0, May 2013, Q-Chem Inc. Pittsburgh 
 -------------------------------------------------------
 A unrestricted SCF calculation will be
 performed using DIIS
 SCF converges when DIIS error is below 1.0e-08
 ---------------------------------------
  Cycle       Energy         DIIS error
 ---------------------------------------
    1    -317.3944888178      6.78e-04  
    2    -317.3846017651      9.64e-05  
    3    -317.3846417134      1.12e-04  
    4    -317.3848558136      2.19e-05  
    5    -317.3848639086      1.27e-05  
    6    -317.3848674013      3.34e-06  
    7    -317.3848680106      1.59e-06  
    8    -317.3848682346      1.30e-06  
    9    -317.3848683750      5.43e-07  
   10    -317.3848684308      2.60e-07  
   11    -317.3848684427      1.46e-07  
   12    -317.3848684450      3.85e-08  
   13    -317.3848684453      1.61e-08  
   14    -317.3848684454      6.92e-09  Convergence criterion met
 ---------------------------------------
 SCF time:   CPU 458.29s  wall 32.00s 
<S^2> =          0.000000000
 SCF   energy in the final basis set =     -317.3848684454
 Total energy in the final basis set =     -317.3848684454
 No wavefunction analysis requested
 Calculating analytic gradient of the SCF energy
 Gradient of SCF Energy
            1           2           3           4           5           6
    1  -0.0000678   0.0041861  -0.0054638   0.0041985  -0.0010341  -0.0029272
    2  -0.0010522   0.0078024  -0.0049406   0.0005441  -0.0058995   0.0035749
    3   0.0003699  -0.0029725   0.0013815   0.0003369   0.0024063  -0.0014927
            7           8           9
    1   0.0007059   0.0000742   0.0003282
    2  -0.0002753   0.0003501  -0.0001040
    3   0.0001598   0.0004425  -0.0006319
 Max gradient component =       7.802E-03
 RMS gradient           =       2.915E-03
 Gradient time:  CPU 96.11 s  wall 6.62 s
 Geometry Optimization Parameters
   NAtoms,    NIC,     NZ,  NCons,   NDum,   NFix, NCnnct, MaxDiis
        9      47       0       0       0       0       0       0

 Cartesian Hessian Update
 Hessian Updated using BFGS Update


** GEOMETRY OPTIMIZATION IN DELOCALIZED INTERNAL COORDINATES **
   Searching for a Minimum

   Optimization Cycle:   3

                       Coordinates (Angstroms)
     ATOM                X               Y               Z
      1  C        -1.0217462118   -0.0164513823   -0.0672096059
      2  C         0.4647468753    0.0388575453    0.0090018850
      3  N         1.2907547094   -0.9627505817    0.4976118737
      4  O         0.7098118697   -1.9501252614    0.8946732555
      5  N         1.8004442226    1.9209300932   -0.7315214895
      6  N         1.1519394649    1.0775430137   -0.4027840424
      7  H        -1.4311647440    0.9400996062   -0.3857955392
      8  H        -1.3392971955   -0.7905683398   -0.7666659908
      9  H        -1.4258979906   -0.2727266931    0.9118406536
   Point Group: c1    Number of degrees of freedom:    21


   Energy is   -317.384868445

 Hessian Updated using BFGS Update

 21 Hessian modes will be used to form the next step
  Hessian Eigenvalues:
     0.009336    0.010562    0.012067    0.072765    0.076264    0.132062
     0.160004    0.160130    0.160604    0.200004    0.241009    0.252406
     0.325236    0.337572    0.339162    0.343106    0.362846    0.432059
     0.627905    0.932755    1.361355

 Minimum Search - Taking Simple RFO Step
 Searching for Lamda that Minimizes Along All modes
 Value Taken    Lamda =  -0.00035424
 Step Taken.  Stepsize is  0.048215

                             Maximum     Tolerance    Cnvgd?
         Gradient           0.006411      0.000100      NO
         Displacement       0.029984      0.000400      NO
         Energy change     -0.000449      0.000000      NO


 New Cartesian Coordinates Obtained by Inverse Iteration

 Displacement from previous Coordinates is:  0.058600
 Adding empirical dispersion correction 
 ----------------------------------------------------------------
 Doing -D3(0) with
 s6  =   1.00000
 s8  =   1.00000
 rs6 =   1.28100
 rs8 =   1.09400
 -D3 energy without 3body term =     -0.0018489169 hartrees
 ----------------------------------------------------------------
             Standard Nuclear Orientation (Angstroms)
    I     Atom           X                Y                Z
 ----------------------------------------------------------------
    1      C      -1.0195300559    -0.0170142578    -0.0656585167
    2      C       0.4679497869     0.0321568442     0.0145712649
    3      N       1.2946827196    -0.9615527244     0.5026734126
    4      O       0.7022362854    -1.9513923612     0.8794653899
    5      N       1.7899632323     1.9280096209    -0.7336667329
    6      N       1.1582542666     1.0742349871    -0.3992662789
    7      H      -1.4270580841     0.9379031272    -0.3940510116
    8      H      -1.3381996902    -0.7959742163    -0.7600689103
    9      H      -1.4287074605    -0.2615630196     0.9151523831
 ----------------------------------------------------------------
 Nuclear Repulsion Energy =   211.6477344107 hartrees
 There are       22 alpha and       22 beta electrons
 Applying Cartesian multipole field
    Component          Value
    ---------          -----
     (2,0,0)        1.00000E-11
     (0,2,0)        2.00000E-11
     (0,0,2)       -3.00000E-10
 Nucleus-field energy     =    -0.0000000081 hartrees
 Requested basis set is def2-TZVP
 There are 78 shells and 204 basis functions
 A cutoff of  1.0D-11 yielded   2865 shell pairs
 There are     20061 function pairs (     26454 Cartesian)
 Smallest overlap matrix eigenvalue = 1.46E-04
 Guess MOs from SCF MO coefficient file
 Reading MOs from coefficient file
 Reading MOs from coefficient file

 -----------------------------------------------------------------------
  General SCF calculation program by
  Eric Jon Sundstrom, Paul Horn, Yuezhi Mao, Dmitri Zuev, Alec White,
  David Stuck, Shaama M.S., Shane Yost, Joonho Lee, David Small,
  Daniel Levine, Susi Lehtola, Hugh Burton, Evgeny Epifanovsky
 -----------------------------------------------------------------------
 Exchange:     0.1957 Hartree-Fock + 1.0000 wB97X-D3 + LR-HF
 Correlation:  1.0000 wB97X-D3
 Using SG-2 standard quadrature grid
 Dispersion:   Grimme D3
 using 16 threads for integral computing
 -------------------------------------------------------
 OpenMP Integral computing Module                
 Release: version 1.0, May 2013, Q-Chem Inc. Pittsburgh 
 -------------------------------------------------------
 using 16 threads for integral computing
 -------------------------------------------------------
 OpenMP Integral computing Module                
 Release: version 1.0, May 2013, Q-Chem Inc. Pittsburgh 
 -------------------------------------------------------
 -------------------------------------------------------
 OpenMP BLAS3 based DFT computing Module                
 Release: version 1.0, May 2013, Q-Chem Inc. Pittsburgh 
 -------------------------------------------------------
 A unrestricted SCF calculation will be
 performed using DIIS
 SCF converges when DIIS error is below 1.0e-08
 ---------------------------------------
  Cycle       Energy         DIIS error
 ---------------------------------------
    1    -317.3809157692      3.33e-04  
    2    -317.3850282373      4.08e-05  
    3    -317.3850616767      4.37e-05  
    4    -317.3850887832      1.15e-05  
    5    -317.3850927952      4.48e-06  
    6    -317.3850937785      2.71e-06  
    7    -317.3850941506      1.14e-06  
    8    -317.3850943204      1.00e-06  
    9    -317.3850944101      3.57e-07  
   10    -317.3850944378      1.57e-07  
   11    -317.3850944421      7.02e-08  
   12    -317.3850944425      2.75e-08  
   13    -317.3850944426      1.16e-08  
   14    -317.3850944426      5.34e-09  Convergence criterion met
 ---------------------------------------
 SCF time:   CPU 456.92s  wall 31.00s 
<S^2> =          0.000000000
 SCF   energy in the final basis set =     -317.3850944426
 Total energy in the final basis set =     -317.3850944426
 No wavefunction analysis requested
 Calculating analytic gradient of the SCF energy
 Gradient of SCF Energy
            1           2           3           4           5           6
    1  -0.0000383   0.0013095  -0.0024508   0.0022694  -0.0008872  -0.0001567
    2  -0.0006427   0.0007525  -0.0026743   0.0030483  -0.0044362   0.0037350
    3   0.0004122  -0.0002894   0.0015122  -0.0015025   0.0019345  -0.0020155
            7           8           9
    1  -0.0000225  -0.0000566   0.0000332
    2  -0.0000208   0.0002123   0.0000258
    3   0.0000843   0.0000258  -0.0001616
 Max gradient component =       4.436E-03
 RMS gradient           =       1.693E-03
 Gradient time:  CPU 91.18 s  wall 6.46 s
 Geometry Optimization Parameters
   NAtoms,    NIC,     NZ,  NCons,   NDum,   NFix, NCnnct, MaxDiis
        9      47       0       0       0       0       0       0

 Cartesian Hessian Update
 Hessian Updated using BFGS Update


** GEOMETRY OPTIMIZATION IN DELOCALIZED INTERNAL COORDINATES **
   Searching for a Minimum

   Optimization Cycle:   4

                       Coordinates (Angstroms)
     ATOM                X               Y               Z
      1  C        -1.0195300559   -0.0170142578   -0.0656585167
      2  C         0.4679497869    0.0321568442    0.0145712649
      3  N         1.2946827196   -0.9615527244    0.5026734126
      4  O         0.7022362854   -1.9513923612    0.8794653899
      5  N         1.7899632323    1.9280096209   -0.7336667329
      6  N         1.1582542666    1.0742349871   -0.3992662789
      7  H        -1.4270580841    0.9379031272   -0.3940510116
      8  H        -1.3381996902   -0.7959742163   -0.7600689103
      9  H        -1.4287074605   -0.2615630196    0.9151523831
   Point Group: c1    Number of degrees of freedom:    21


   Energy is   -317.385094443

 Hessian Updated using BFGS Update

 21 Hessian modes will be used to form the next step
  Hessian Eigenvalues:
     0.009091    0.010560    0.013323    0.072765    0.075655    0.090417
     0.159958    0.160029    0.161148    0.200032    0.238754    0.245158
     0.324690    0.337514    0.339039    0.343293    0.349913    0.485474
     0.629320    0.964266    1.249210

 Minimum Search - Taking Simple RFO Step
 Searching for Lamda that Minimizes Along All modes
 Value Taken    Lamda =  -0.00019766
 Step Taken.  Stepsize is  0.067257

                             Maximum     Tolerance    Cnvgd?
         Gradient           0.004975      0.000100      NO
         Displacement       0.041548      0.000400      NO
         Energy change     -0.000226      0.000000      NO


 New Cartesian Coordinates Obtained by Inverse Iteration

 Displacement from previous Coordinates is:  0.078217
 Adding empirical dispersion correction 
 ----------------------------------------------------------------
 Doing -D3(0) with
 s6  =   1.00000
 s8  =   1.00000
 rs6 =   1.28100
 rs8 =   1.09400
 -D3 energy without 3body term =     -0.0018510633 hartrees
 ----------------------------------------------------------------
             Standard Nuclear Orientation (Angstroms)
    I     Atom           X                Y                Z
 ----------------------------------------------------------------
    1      C      -1.0147713243    -0.0164271447    -0.0668485232
    2      C       0.4730935523     0.0213653014     0.0127682992
    3      N       1.2982137141    -0.9747351140     0.4905943784
    4      O       0.6932012164    -1.9514216713     0.8918095455
    5      N       1.7687678036     1.9438720039    -0.7317890475
    6      N       1.1617221421     1.0713706792    -0.3951853613
    7      H      -1.4158385263     0.9401936954    -0.3991824688
    8      H      -1.3387687273    -0.7960760984    -0.7585272544
    9      H      -1.4260288507    -0.2533336515     0.9155114321
 ----------------------------------------------------------------
 Nuclear Repulsion Energy =   211.5137142563 hartrees
 There are       22 alpha and       22 beta electrons
 Applying Cartesian multipole field
    Component          Value
    ---------          -----
     (2,0,0)        1.00000E-11
     (0,2,0)        2.00000E-11
     (0,0,2)       -3.00000E-10
 Nucleus-field energy     =    -0.0000000081 hartrees
 Requested basis set is def2-TZVP
 There are 78 shells and 204 basis functions
 A cutoff of  1.0D-11 yielded   2866 shell pairs
 There are     20062 function pairs (     26455 Cartesian)
 Smallest overlap matrix eigenvalue = 1.47E-04
 Guess MOs from SCF MO coefficient file
 Reading MOs from coefficient file
 Reading MOs from coefficient file

 -----------------------------------------------------------------------
  General SCF calculation program by
  Eric Jon Sundstrom, Paul Horn, Yuezhi Mao, Dmitri Zuev, Alec White,
  David Stuck, Shaama M.S., Shane Yost, Joonho Lee, David Small,
  Daniel Levine, Susi Lehtola, Hugh Burton, Evgeny Epifanovsky
 -----------------------------------------------------------------------
 Exchange:     0.1957 Hartree-Fock + 1.0000 wB97X-D3 + LR-HF
 Correlation:  1.0000 wB97X-D3
 Using SG-2 standard quadrature grid
 Dispersion:   Grimme D3
 using 16 threads for integral computing
 -------------------------------------------------------
 OpenMP Integral computing Module                
 Release: version 1.0, May 2013, Q-Chem Inc. Pittsburgh 
 -------------------------------------------------------
 using 16 threads for integral computing
 -------------------------------------------------------
 OpenMP Integral computing Module                
 Release: version 1.0, May 2013, Q-Chem Inc. Pittsburgh 
 -------------------------------------------------------
 -------------------------------------------------------
 OpenMP BLAS3 based DFT computing Module                
 Release: version 1.0, May 2013, Q-Chem Inc. Pittsburgh 
 -------------------------------------------------------
 A unrestricted SCF calculation will be
 performed using DIIS
 SCF converges when DIIS error is below 1.0e-08
 ---------------------------------------
  Cycle       Energy         DIIS error
 ---------------------------------------
    1    -317.3767346213      4.47e-04  
    2    -317.3850519150      4.87e-05  
    3    -317.3851459110      3.59e-05  
    4    -317.3851668738      1.82e-05  
    5    -317.3851761190      7.53e-06  
    6    -317.3851790922      4.02e-06  
    7    -317.3851802268      1.96e-06  
    8    -317.3851808789      1.59e-06  
    9    -317.3851811050      6.00e-07  
   10    -317.3851811639      2.32e-07  
   11    -317.3851811720      1.16e-07  
   12    -317.3851811730      4.99e-08  
   13    -317.3851811735      1.95e-08  
   14    -317.3851811736      6.24e-09  Convergence criterion met
 ---------------------------------------
 SCF time:   CPU 455.67s  wall 31.00s 
<S^2> =          0.000000000
 SCF   energy in the final basis set =     -317.3851811736
 Total energy in the final basis set =     -317.3851811736
 No wavefunction analysis requested
 Calculating analytic gradient of the SCF energy
 Gradient of SCF Energy
            1           2           3           4           5           6
    1   0.0003360  -0.0011368   0.0011626  -0.0005572   0.0009713  -0.0003827
    2  -0.0003135  -0.0030375  -0.0001676   0.0017300  -0.0004497   0.0019519
    3  -0.0004735   0.0015150  -0.0010465   0.0000819   0.0000967  -0.0002228
            7           8           9
    1  -0.0002628  -0.0001662   0.0000360
    2   0.0001305   0.0001081   0.0000477
    3   0.0000682  -0.0001861   0.0001671
 Max gradient component =       3.038E-03
 RMS gradient           =       9.505E-04
 Gradient time:  CPU 89.22 s  wall 6.19 s
 Geometry Optimization Parameters
   NAtoms,    NIC,     NZ,  NCons,   NDum,   NFix, NCnnct, MaxDiis
        9      47       0       0       0       0       0       0

 Cartesian Hessian Update
 Hessian Updated using BFGS Update


** GEOMETRY OPTIMIZATION IN DELOCALIZED INTERNAL COORDINATES **
   Searching for a Minimum

   Optimization Cycle:   5

                       Coordinates (Angstroms)
     ATOM                X               Y               Z
      1  C        -1.0147713243   -0.0164271447   -0.0668485232
      2  C         0.4730935523    0.0213653014    0.0127682992
      3  N         1.2982137141   -0.9747351140    0.4905943784
      4  O         0.6932012164   -1.9514216713    0.8918095455
      5  N         1.7687678036    1.9438720039   -0.7317890475
      6  N         1.1617221421    1.0713706792   -0.3951853613
      7  H        -1.4158385263    0.9401936954   -0.3991824688
      8  H        -1.3387687273   -0.7960760984   -0.7585272544
      9  H        -1.4260288507   -0.2533336515    0.9155114321
   Point Group: c1    Number of degrees of freedom:    21


   Energy is   -317.385181174

 Hessian Updated using BFGS Update

 21 Hessian modes will be used to form the next step
  Hessian Eigenvalues:
     0.008236    0.010567    0.023529    0.059976    0.072945    0.076781
     0.159824    0.160428    0.160825    0.200405    0.227680    0.246435
     0.326223    0.337523    0.339043    0.343274    0.354292    0.539223
     0.643076    0.900595    1.263833

 Minimum Search - Taking Simple RFO Step
 Searching for Lamda that Minimizes Along All modes
 Value Taken    Lamda =  -0.00014728
 Step Taken.  Stepsize is  0.078938

                             Maximum     Tolerance    Cnvgd?
         Gradient           0.001734      0.000100      NO
         Displacement       0.064759      0.000400      NO
         Energy change     -0.000087      0.000000      NO


 New Cartesian Coordinates Obtained by Inverse Iteration

 Displacement from previous Coordinates is:  0.113675
 Adding empirical dispersion correction 
 ----------------------------------------------------------------
 Doing -D3(0) with
 s6  =   1.00000
 s8  =   1.00000
 rs6 =   1.28100
 rs8 =   1.09400
 -D3 energy without 3body term =     -0.0018555892 hartrees
 ----------------------------------------------------------------
             Standard Nuclear Orientation (Angstroms)
    I     Atom           X                Y                Z
 ----------------------------------------------------------------
    1      C      -1.0109723045    -0.0126380234    -0.0646996247
    2      C       0.4764862915     0.0182494416     0.0224501886
    3      N       1.2974201213    -0.9775364798     0.5050445297
    4      O       0.6938627787    -1.9740415309     0.8664523541
    5      N       1.7473144154     1.9545491609    -0.7368989827
    6      N       1.1633282433     1.0691892503    -0.3903878657
    7      H      -1.4037497620     0.9396954237    -0.4182696890
    8      H      -1.3335401661    -0.8040340471    -0.7436322318
    9      H      -1.4305586177    -0.2286251952     0.9190923215
 ----------------------------------------------------------------
 Nuclear Repulsion Energy =   211.3256424994 hartrees
 There are       22 alpha and       22 beta electrons
 Applying Cartesian multipole field
    Component          Value
    ---------          -----
     (2,0,0)        1.00000E-11
     (0,2,0)        2.00000E-11
     (0,0,2)       -3.00000E-10
 Nucleus-field energy     =    -0.0000000078 hartrees
 Requested basis set is def2-TZVP
 There are 78 shells and 204 basis functions
 A cutoff of  1.0D-11 yielded   2863 shell pairs
 There are     20015 function pairs (     26388 Cartesian)
 Smallest overlap matrix eigenvalue = 1.48E-04
 Guess MOs from SCF MO coefficient file
 Reading MOs from coefficient file
 Reading MOs from coefficient file

 -----------------------------------------------------------------------
  General SCF calculation program by
  Eric Jon Sundstrom, Paul Horn, Yuezhi Mao, Dmitri Zuev, Alec White,
  David Stuck, Shaama M.S., Shane Yost, Joonho Lee, David Small,
  Daniel Levine, Susi Lehtola, Hugh Burton, Evgeny Epifanovsky
 -----------------------------------------------------------------------
 Exchange:     0.1957 Hartree-Fock + 1.0000 wB97X-D3 + LR-HF
 Correlation:  1.0000 wB97X-D3
 Using SG-2 standard quadrature grid
 Dispersion:   Grimme D3
 using 16 threads for integral computing
 -------------------------------------------------------
 OpenMP Integral computing Module                
 Release: version 1.0, May 2013, Q-Chem Inc. Pittsburgh 
 -------------------------------------------------------
 using 16 threads for integral computing
 -------------------------------------------------------
 OpenMP Integral computing Module                
 Release: version 1.0, May 2013, Q-Chem Inc. Pittsburgh 
 -------------------------------------------------------
 -------------------------------------------------------
 OpenMP BLAS3 based DFT computing Module                
 Release: version 1.0, May 2013, Q-Chem Inc. Pittsburgh 
 -------------------------------------------------------
 A unrestricted SCF calculation will be
 performed using DIIS
 SCF converges when DIIS error is below 1.0e-08
 ---------------------------------------
  Cycle       Energy         DIIS error
 ---------------------------------------
    1    -317.3779338079      4.75e-04  
    2    -317.3850325916      5.51e-05  
    3    -317.3851724578      3.47e-05  
    4    -317.3851958236      2.03e-05  
    5    -317.3852072641      8.83e-06  
    6    -317.3852109293      4.41e-06  
    7    -317.3852122338      2.02e-06  
    8    -317.3852131923      1.19e-06  
    9    -317.3852133591      7.46e-07  
   10    -317.3852134148      2.95e-07  
   11    -317.3852134242      1.31e-07  
   12    -317.3852134253      5.18e-08  
   13    -317.3852134258      2.10e-08  
   14    -317.3852134259      7.93e-09  Convergence criterion met
 ---------------------------------------
 SCF time:   CPU 456.59s  wall 31.00s 
<S^2> =          0.000000000
 SCF   energy in the final basis set =     -317.3852134259
 Total energy in the final basis set =     -317.3852134259
 No wavefunction analysis requested
 Calculating analytic gradient of the SCF energy
 Gradient of SCF Energy
            1           2           3           4           5           6
    1   0.0004753  -0.0017315   0.0019601  -0.0016385   0.0016182  -0.0005465
    2   0.0005547  -0.0032532   0.0029668  -0.0024876   0.0021280  -0.0000856
    3   0.0001440   0.0011464   0.0001331   0.0000546  -0.0006528  -0.0007989
            7           8           9
    1  -0.0001356   0.0000162  -0.0000177
    2   0.0001392   0.0000048   0.0000332
    3   0.0000120  -0.0002030   0.0001648
 Max gradient component =       3.253E-03
 RMS gradient           =       1.300E-03
 Gradient time:  CPU 88.97 s  wall 6.20 s
 Geometry Optimization Parameters
   NAtoms,    NIC,     NZ,  NCons,   NDum,   NFix, NCnnct, MaxDiis
        9      47       0       0       0       0       0       0

 Cartesian Hessian Update
 Hessian Updated using BFGS Update


** GEOMETRY OPTIMIZATION IN DELOCALIZED INTERNAL COORDINATES **
   Searching for a Minimum

   Optimization Cycle:   6

                       Coordinates (Angstroms)
     ATOM                X               Y               Z
      1  C        -1.0109723045   -0.0126380234   -0.0646996247
      2  C         0.4764862915    0.0182494416    0.0224501886
      3  N         1.2974201213   -0.9775364798    0.5050445297
      4  O         0.6938627787   -1.9740415309    0.8664523541
      5  N         1.7473144154    1.9545491609   -0.7368989827
      6  N         1.1633282433    1.0691892503   -0.3903878657
      7  H        -1.4037497620    0.9396954237   -0.4182696890
      8  H        -1.3335401661   -0.8040340471   -0.7436322318
      9  H        -1.4305586177   -0.2286251952    0.9190923215
   Point Group: c1    Number of degrees of freedom:    21


   Energy is   -317.385213426

 Hessian Updated using BFGS Update

 21 Hessian modes will be used to form the next step
  Hessian Eigenvalues:
     0.008013    0.010568    0.039695    0.059867    0.072955    0.076599
     0.159967    0.160132    0.160817    0.201081    0.225894    0.249516
     0.325493    0.337525    0.339054    0.343271    0.353564    0.489404
     0.628273    0.976087    1.279464

 Minimum Search - Taking Simple RFO Step
 Searching for Lamda that Minimizes Along All modes
 Value Taken    Lamda =  -0.00005825
 Step Taken.  Stepsize is  0.026926

                             Maximum     Tolerance    Cnvgd?
         Gradient           0.003142      0.000100      NO
         Displacement       0.016746      0.000400      NO
         Energy change     -0.000032      0.000000      NO


 New Cartesian Coordinates Obtained by Inverse Iteration

 Displacement from previous Coordinates is:  0.029234
 Adding empirical dispersion correction 
 ----------------------------------------------------------------
 Doing -D3(0) with
 s6  =   1.00000
 s8  =   1.00000
 rs6 =   1.28100
 rs8 =   1.09400
 -D3 energy without 3body term =     -0.0018549686 hartrees
 ----------------------------------------------------------------
             Standard Nuclear Orientation (Angstroms)
    I     Atom           X                Y                Z
 ----------------------------------------------------------------
    1      C      -1.0117906854    -0.0132089191    -0.0654272453
    2      C       0.4763634484     0.0193938750     0.0183015639
    3      N       1.2968822398    -0.9790685143     0.4972710200
    4      O       0.6943460758    -1.9682214729     0.8745239839
    5      N       1.7507236195     1.9529051701    -0.7328091567
    6      N       1.1634966241     1.0693158476    -0.3901863140
    7      H      -1.4060951734     0.9392735956    -0.4163891271
    8      H      -1.3352291468    -0.8037695528    -0.7446842661
    9      H      -1.4291060020    -0.2318120292     0.9185505415
 ----------------------------------------------------------------
 Nuclear Repulsion Energy =   211.4323883638 hartrees
 There are       22 alpha and       22 beta electrons
 Applying Cartesian multipole field
    Component          Value
    ---------          -----
     (2,0,0)        1.00000E-11
     (0,2,0)        2.00000E-11
     (0,0,2)       -3.00000E-10
 Nucleus-field energy     =    -0.0000000079 hartrees
 Requested basis set is def2-TZVP
 There are 78 shells and 204 basis functions
 A cutoff of  1.0D-11 yielded   2863 shell pairs
 There are     20015 function pairs (     26388 Cartesian)
 Smallest overlap matrix eigenvalue = 1.46E-04
 Guess MOs from SCF MO coefficient file
 Reading MOs from coefficient file
 Reading MOs from coefficient file

 -----------------------------------------------------------------------
  General SCF calculation program by
  Eric Jon Sundstrom, Paul Horn, Yuezhi Mao, Dmitri Zuev, Alec White,
  David Stuck, Shaama M.S., Shane Yost, Joonho Lee, David Small,
  Daniel Levine, Susi Lehtola, Hugh Burton, Evgeny Epifanovsky
 -----------------------------------------------------------------------
 Exchange:     0.1957 Hartree-Fock + 1.0000 wB97X-D3 + LR-HF
 Correlation:  1.0000 wB97X-D3
 Using SG-2 standard quadrature grid
 Dispersion:   Grimme D3
 using 16 threads for integral computing
 -------------------------------------------------------
 OpenMP Integral computing Module                
 Release: version 1.0, May 2013, Q-Chem Inc. Pittsburgh 
 -------------------------------------------------------
 using 16 threads for integral computing
 -------------------------------------------------------
 OpenMP Integral computing Module                
 Release: version 1.0, May 2013, Q-Chem Inc. Pittsburgh 
 -------------------------------------------------------
 -------------------------------------------------------
 OpenMP BLAS3 based DFT computing Module                
 Release: version 1.0, May 2013, Q-Chem Inc. Pittsburgh 
 -------------------------------------------------------
 A unrestricted SCF calculation will be
 performed using DIIS
 SCF converges when DIIS error is below 1.0e-08
 ---------------------------------------
  Cycle       Energy         DIIS error
 ---------------------------------------
    1    -317.3889878138      1.55e-04  
    2    -317.3852225507      2.02e-05  
    3    -317.3852398258      1.69e-05  
    4    -317.3852446027      8.02e-06  
    5    -317.3852467459      3.33e-06  
    6    -317.3852475312      1.99e-06  
    7    -317.3852478535      9.66e-07  
    8    -317.3852480508      7.48e-07  
    9    -317.3852480942      2.48e-07  
   10    -317.3852481040      1.09e-07  
   11    -317.3852481055      5.15e-08  
   12    -317.3852481058      2.21e-08  
   13    -317.3852481059      8.94e-09  Convergence criterion met
 ---------------------------------------
 SCF time:   CPU 426.52s  wall 29.00s 
<S^2> =          0.000000000
 SCF   energy in the final basis set =     -317.3852481059
 Total energy in the final basis set =     -317.3852481059
 No wavefunction analysis requested
 Calculating analytic gradient of the SCF energy
 Gradient of SCF Energy
            1           2           3           4           5           6
    1   0.0001575  -0.0003395   0.0004669  -0.0005247   0.0003067   0.0000435
    2   0.0001926  -0.0015682   0.0012168  -0.0007674  -0.0000728   0.0009052
    3  -0.0000689   0.0006729  -0.0002887   0.0001649   0.0000789  -0.0005711
            7           8           9
    1  -0.0000311  -0.0000735  -0.0000059
    2   0.0000634   0.0000534  -0.0000229
    3   0.0000546  -0.0000784   0.0000357
 Max gradient component =       1.568E-03
 RMS gradient           =       5.108E-04
 Gradient time:  CPU 87.89 s  wall 6.18 s
 Geometry Optimization Parameters
   NAtoms,    NIC,     NZ,  NCons,   NDum,   NFix, NCnnct, MaxDiis
        9      47       0       0       0       0       0       0

 Cartesian Hessian Update
 Hessian Updated using BFGS Update


** GEOMETRY OPTIMIZATION IN DELOCALIZED INTERNAL COORDINATES **
   Searching for a Minimum

   Optimization Cycle:   7

                       Coordinates (Angstroms)
     ATOM                X               Y               Z
      1  C        -1.0117906854   -0.0132089191   -0.0654272453
      2  C         0.4763634484    0.0193938750    0.0183015639
      3  N         1.2968822398   -0.9790685143    0.4972710200
      4  O         0.6943460758   -1.9682214729    0.8745239839
      5  N         1.7507236195    1.9529051701   -0.7328091567
      6  N         1.1634966241    1.0693158476   -0.3901863140
      7  H        -1.4060951734    0.9392735956   -0.4163891271
      8  H        -1.3352291468   -0.8037695528   -0.7446842661
      9  H        -1.4291060020   -0.2318120292    0.9185505415
   Point Group: c1    Number of degrees of freedom:    21


   Energy is   -317.385248106

 Hessian Updated using BFGS Update

 21 Hessian modes will be used to form the next step
  Hessian Eigenvalues:
     0.007850    0.010568    0.039253    0.061546    0.072989    0.076542
     0.159823    0.160297    0.161145    0.200795    0.218324    0.240430
     0.324547    0.337522    0.339035    0.343243    0.358820    0.452614
     0.605172    0.920799    1.295939

 Minimum Search - Taking Simple RFO Step
 Searching for Lamda that Minimizes Along All modes
 Value Taken    Lamda =  -0.00001082
 Step Taken.  Stepsize is  0.022404

                             Maximum     Tolerance    Cnvgd?
         Gradient           0.001077      0.000100      NO
         Displacement       0.014473      0.000400      NO
         Energy change     -0.000035      0.000000      NO


 New Cartesian Coordinates Obtained by Inverse Iteration

 Displacement from previous Coordinates is:  0.024063
 Adding empirical dispersion correction 
 ----------------------------------------------------------------
 Doing -D3(0) with
 s6  =   1.00000
 s8  =   1.00000
 rs6 =   1.28100
 rs8 =   1.09400
 -D3 energy without 3body term =     -0.0018553779 hartrees
 ----------------------------------------------------------------
             Standard Nuclear Orientation (Angstroms)
    I     Atom           X                Y                Z
 ----------------------------------------------------------------
    1      C      -1.0112040390    -0.0129286089    -0.0652100613
    2      C       0.4772595581     0.0197028632     0.0172352008
    3      N       1.2963565683    -0.9818277703     0.4939039330
    4      O       0.6927301710    -1.9688970710     0.8727536448
    5      N       1.7483307229     1.9554353095    -0.7298870268
    6      N       1.1641823844     1.0694295946    -0.3883155835
    7      H      -1.4053099395     0.9374949683    -0.4217153982
    8      H      -1.3344479430    -0.8075998758    -0.7396247678
    9      H      -1.4283064830    -0.2260014094     0.9200110590
 ----------------------------------------------------------------
 Nuclear Repulsion Energy =   211.4623440890 hartrees
 There are       22 alpha and       22 beta electrons
 Applying Cartesian multipole field
    Component          Value
    ---------          -----
     (2,0,0)        1.00000E-11
     (0,2,0)        2.00000E-11
     (0,0,2)       -3.00000E-10
 Nucleus-field energy     =    -0.0000000078 hartrees
 Requested basis set is def2-TZVP
 There are 78 shells and 204 basis functions
 A cutoff of  1.0D-11 yielded   2863 shell pairs
 There are     20015 function pairs (     26388 Cartesian)
 Smallest overlap matrix eigenvalue = 1.46E-04
 Guess MOs from SCF MO coefficient file
 Reading MOs from coefficient file
 Reading MOs from coefficient file

 -----------------------------------------------------------------------
  General SCF calculation program by
  Eric Jon Sundstrom, Paul Horn, Yuezhi Mao, Dmitri Zuev, Alec White,
  David Stuck, Shaama M.S., Shane Yost, Joonho Lee, David Small,
  Daniel Levine, Susi Lehtola, Hugh Burton, Evgeny Epifanovsky
 -----------------------------------------------------------------------
 Exchange:     0.1957 Hartree-Fock + 1.0000 wB97X-D3 + LR-HF
 Correlation:  1.0000 wB97X-D3
 Using SG-2 standard quadrature grid
 Dispersion:   Grimme D3
 using 16 threads for integral computing
 -------------------------------------------------------
 OpenMP Integral computing Module                
 Release: version 1.0, May 2013, Q-Chem Inc. Pittsburgh 
 -------------------------------------------------------
 using 16 threads for integral computing
 -------------------------------------------------------
 OpenMP Integral computing Module                
 Release: version 1.0, May 2013, Q-Chem Inc. Pittsburgh 
 -------------------------------------------------------
 -------------------------------------------------------
 OpenMP BLAS3 based DFT computing Module                
 Release: version 1.0, May 2013, Q-Chem Inc. Pittsburgh 
 -------------------------------------------------------
 A unrestricted SCF calculation will be
 performed using DIIS
 SCF converges when DIIS error is below 1.0e-08
 ---------------------------------------
  Cycle       Energy         DIIS error
 ---------------------------------------
    1    -317.3867200631      6.39e-05  
    2    -317.3852527401      8.52e-06  
    3    -317.3852542679      9.38e-06  
    4    -317.3852556378      2.51e-06  
    5    -317.3852559023      1.04e-06  
    6    -317.3852559840      6.79e-07  
    7    -317.3852560217      3.96e-07  
    8    -317.3852560397      2.61e-07  
    9    -317.3852560490      6.84e-08  
   10    -317.3852560499      3.04e-08  
   11    -317.3852560501      1.34e-08  
   12    -317.3852560501      8.79e-09  Convergence criterion met
 ---------------------------------------
 SCF time:   CPU 385.54s  wall 26.00s 
<S^2> =          0.000000000
 SCF   energy in the final basis set =     -317.3852560501
 Total energy in the final basis set =     -317.3852560501
 No wavefunction analysis requested
 Calculating analytic gradient of the SCF energy
 Gradient of SCF Energy
            1           2           3           4           5           6
    1  -0.0000054   0.0001483  -0.0000168  -0.0001345  -0.0000064   0.0000315
    2   0.0000944  -0.0005207   0.0004271  -0.0002295  -0.0002869   0.0004702
    3  -0.0000881   0.0002902  -0.0002054   0.0001160   0.0001198  -0.0002464
            7           8           9
    1   0.0000232  -0.0000671   0.0000271
    2   0.0000414   0.0000555  -0.0000516
    3   0.0000548  -0.0000322  -0.0000088
 Max gradient component =       5.207E-04
 RMS gradient           =       2.019E-04
 Gradient time:  CPU 87.06 s  wall 6.61 s
 Geometry Optimization Parameters
   NAtoms,    NIC,     NZ,  NCons,   NDum,   NFix, NCnnct, MaxDiis
        9      47       0       0       0       0       0       0

 Cartesian Hessian Update
 Hessian Updated using BFGS Update


** GEOMETRY OPTIMIZATION IN DELOCALIZED INTERNAL COORDINATES **
   Searching for a Minimum

   Optimization Cycle:   8

                       Coordinates (Angstroms)
     ATOM                X               Y               Z
      1  C        -1.0112040390   -0.0129286089   -0.0652100613
      2  C         0.4772595581    0.0197028632    0.0172352008
      3  N         1.2963565683   -0.9818277703    0.4939039330
      4  O         0.6927301710   -1.9688970710    0.8727536448
      5  N         1.7483307229    1.9554353095   -0.7298870268
      6  N         1.1641823844    1.0694295946   -0.3883155835
      7  H        -1.4053099395    0.9374949683   -0.4217153982
      8  H        -1.3344479430   -0.8075998758   -0.7396247678
      9  H        -1.4283064830   -0.2260014094    0.9200110590
   Point Group: c1    Number of degrees of freedom:    21


   Energy is   -317.385256050

 Hessian Updated using BFGS Update

 21 Hessian modes will be used to form the next step
  Hessian Eigenvalues:
     0.004514    0.010568    0.044135    0.061153    0.072922    0.076602
     0.156595    0.160256    0.161214    0.194097    0.201427    0.238984
     0.326297    0.337513    0.339073    0.342998    0.350272    0.459562
     0.613769    0.916416    1.319646

 Minimum Search - Taking Simple RFO Step
 Searching for Lamda that Minimizes Along All modes
 Value Taken    Lamda =  -0.00000693
 Step Taken.  Stepsize is  0.035277

                             Maximum     Tolerance    Cnvgd?
         Gradient           0.000457      0.000100      NO
         Displacement       0.026572      0.000400      NO
         Energy change     -0.000008      0.000000      NO


 New Cartesian Coordinates Obtained by Inverse Iteration

 Displacement from previous Coordinates is:  0.042041
 Adding empirical dispersion correction 
 ----------------------------------------------------------------
 Doing -D3(0) with
 s6  =   1.00000
 s8  =   1.00000
 rs6 =   1.28100
 rs8 =   1.09400
 -D3 energy without 3body term =     -0.0018560689 hartrees
 ----------------------------------------------------------------
             Standard Nuclear Orientation (Angstroms)
    I     Atom           X                Y                Z
 ----------------------------------------------------------------
    1      C      -1.0104609134    -0.0125233575    -0.0645597123
    2      C       0.4782159122     0.0199177646     0.0165938236
    3      N       1.2959638713    -0.9850111409     0.4903417264
    4      O       0.6908186319    -1.9714955784     0.8667726049
    5      N       1.7452898007     1.9592927753    -0.7255289975
    6      N       1.1651754960     1.0699464518    -0.3853435142
    7      H      -1.4041906198     0.9340669181    -0.4314139805
    8      H      -1.3332224919    -0.8144603446    -0.7304468243
    9      H      -1.4279986869    -0.2149254883     0.9227358741
 ----------------------------------------------------------------
 Nuclear Repulsion Energy =   211.4756596780 hartrees
 There are       22 alpha and       22 beta electrons
 Applying Cartesian multipole field
    Component          Value
    ---------          -----
     (2,0,0)        1.00000E-11
     (0,2,0)        2.00000E-11
     (0,0,2)       -3.00000E-10
 Nucleus-field energy     =    -0.0000000076 hartrees
 Requested basis set is def2-TZVP
 There are 78 shells and 204 basis functions
 A cutoff of  1.0D-11 yielded   2864 shell pairs
 There are     20036 function pairs (     26418 Cartesian)
 Smallest overlap matrix eigenvalue = 1.46E-04
 Guess MOs from SCF MO coefficient file
 Reading MOs from coefficient file
 Reading MOs from coefficient file

 -----------------------------------------------------------------------
  General SCF calculation program by
  Eric Jon Sundstrom, Paul Horn, Yuezhi Mao, Dmitri Zuev, Alec White,
  David Stuck, Shaama M.S., Shane Yost, Joonho Lee, David Small,
  Daniel Levine, Susi Lehtola, Hugh Burton, Evgeny Epifanovsky
 -----------------------------------------------------------------------
 Exchange:     0.1957 Hartree-Fock + 1.0000 wB97X-D3 + LR-HF
 Correlation:  1.0000 wB97X-D3
 Using SG-2 standard quadrature grid
 Dispersion:   Grimme D3
 using 16 threads for integral computing
 -------------------------------------------------------
 OpenMP Integral computing Module                
 Release: version 1.0, May 2013, Q-Chem Inc. Pittsburgh 
 -------------------------------------------------------
 using 16 threads for integral computing
 -------------------------------------------------------
 OpenMP Integral computing Module                
 Release: version 1.0, May 2013, Q-Chem Inc. Pittsburgh 
 -------------------------------------------------------
 -------------------------------------------------------
 OpenMP BLAS3 based DFT computing Module                
 Release: version 1.0, May 2013, Q-Chem Inc. Pittsburgh 
 -------------------------------------------------------
 A unrestricted SCF calculation will be
 performed using DIIS
 SCF converges when DIIS error is below 1.0e-08
 ---------------------------------------
  Cycle       Energy         DIIS error
 ---------------------------------------
    1    -317.3859493266      8.36e-05  
    2    -317.3852564314      9.71e-06  
    3    -317.3852595192      8.30e-06  
    4    -317.3852605510      3.61e-06  
    5    -317.3852608759      8.99e-07  
    6    -317.3852609204      5.08e-07  
    7    -317.3852609366      2.56e-07  
    8    -317.3852609456      2.00e-07  
    9    -317.3852609491      7.78e-08  
   10    -317.3852609502      2.76e-08  
   11    -317.3852609503      1.29e-08  
   12    -317.3852609503      7.87e-09  Convergence criterion met
 ---------------------------------------
 SCF time:   CPU 402.44s  wall 27.00s 
<S^2> =          0.000000000
 SCF   energy in the final basis set =     -317.3852609503
 Total energy in the final basis set =     -317.3852609503
 No wavefunction analysis requested
 Calculating analytic gradient of the SCF energy
 Gradient of SCF Energy
            1           2           3           4           5           6
    1  -0.0001085   0.0002778  -0.0002213   0.0001009  -0.0001426   0.0000502
    2   0.0000135   0.0003139  -0.0001876   0.0001288  -0.0001303  -0.0001622
    3  -0.0000475  -0.0000583   0.0000160  -0.0000067   0.0000405   0.0000481
            7           8           9
    1   0.0000414  -0.0000456   0.0000478
    2   0.0000247   0.0000543  -0.0000552
    3   0.0000468  -0.0000174  -0.0000216
 Max gradient component =       3.139E-04
 RMS gradient           =       1.202E-04
 Gradient time:  CPU 86.00 s  wall 6.29 s
 Geometry Optimization Parameters
   NAtoms,    NIC,     NZ,  NCons,   NDum,   NFix, NCnnct, MaxDiis
        9      47       0       0       0       0       0       0

 Cartesian Hessian Update
 Hessian Updated using BFGS Update


** GEOMETRY OPTIMIZATION IN DELOCALIZED INTERNAL COORDINATES **
   Searching for a Minimum

   Optimization Cycle:   9

                       Coordinates (Angstroms)
     ATOM                X               Y               Z
      1  C        -1.0104609134   -0.0125233575   -0.0645597123
      2  C         0.4782159122    0.0199177646    0.0165938236
      3  N         1.2959638713   -0.9850111409    0.4903417264
      4  O         0.6908186319   -1.9714955784    0.8667726049
      5  N         1.7452898007    1.9592927753   -0.7255289975
      6  N         1.1651754960    1.0699464518   -0.3853435142
      7  H        -1.4041906198    0.9340669181   -0.4314139805
      8  H        -1.3332224919   -0.8144603446   -0.7304468243
      9  H        -1.4279986869   -0.2149254883    0.9227358741
   Point Group: c1    Number of degrees of freedom:    21


   Energy is   -317.385260950

 Hessian Updated using BFGS Update

 21 Hessian modes will be used to form the next step
  Hessian Eigenvalues:
     0.002430    0.010568    0.043361    0.063819    0.072769    0.076941
     0.155540    0.160415    0.160840    0.201223    0.221536    0.238680
     0.326966    0.337486    0.339082    0.343199    0.351259    0.484946
     0.633496    0.940729    1.311830

 Minimum Search - Taking Simple RFO Step
 Searching for Lamda that Minimizes Along All modes
 Value Taken    Lamda =  -0.00000308
 Step Taken.  Stepsize is  0.031972

                             Maximum     Tolerance    Cnvgd?
         Gradient           0.000191      0.000100      NO
         Displacement       0.025495      0.000400      NO
         Energy change     -0.000005      0.000000      NO


 New Cartesian Coordinates Obtained by Inverse Iteration

 Displacement from previous Coordinates is:  0.038808
 Adding empirical dispersion correction 
 ----------------------------------------------------------------
 Doing -D3(0) with
 s6  =   1.00000
 s8  =   1.00000
 rs6 =   1.28100
 rs8 =   1.09400
 -D3 energy without 3body term =     -0.0018564793 hartrees
 ----------------------------------------------------------------
             Standard Nuclear Orientation (Angstroms)
    I     Atom           X                Y                Z
 ----------------------------------------------------------------
    1      C      -1.0101591370    -0.0122893770    -0.0638970585
    2      C       0.4785310688     0.0199940834     0.0161904437
    3      N       1.2959256716    -0.9869891632     0.4871806910
    4      O       0.6900569405    -1.9739837054     0.8606363088
    5      N       1.7441094092     1.9620283909    -0.7211746747
    6      N       1.1656375364     1.0707986647    -0.3827915931
    7      H      -1.4036222968     0.9306063107    -0.4404455004
    8      H      -1.3325513621    -0.8209096538    -0.7217712170
    9      H      -1.4283368306    -0.2044475504     0.9252236003
 ----------------------------------------------------------------
 Nuclear Repulsion Energy =   211.4760719514 hartrees
 There are       22 alpha and       22 beta electrons
 Applying Cartesian multipole field
    Component          Value
    ---------          -----
     (2,0,0)        1.00000E-11
     (0,2,0)        2.00000E-11
     (0,0,2)       -3.00000E-10
 Nucleus-field energy     =    -0.0000000074 hartrees
 Requested basis set is def2-TZVP
 There are 78 shells and 204 basis functions
 A cutoff of  1.0D-11 yielded   2864 shell pairs
 There are     20036 function pairs (     26418 Cartesian)
 Smallest overlap matrix eigenvalue = 1.46E-04
 Guess MOs from SCF MO coefficient file
 Reading MOs from coefficient file
 Reading MOs from coefficient file

 -----------------------------------------------------------------------
  General SCF calculation program by
  Eric Jon Sundstrom, Paul Horn, Yuezhi Mao, Dmitri Zuev, Alec White,
  David Stuck, Shaama M.S., Shane Yost, Joonho Lee, David Small,
  Daniel Levine, Susi Lehtola, Hugh Burton, Evgeny Epifanovsky
 -----------------------------------------------------------------------
 Exchange:     0.1957 Hartree-Fock + 1.0000 wB97X-D3 + LR-HF
 Correlation:  1.0000 wB97X-D3
 Using SG-2 standard quadrature grid
 Dispersion:   Grimme D3
 using 16 threads for integral computing
 -------------------------------------------------------
 OpenMP Integral computing Module                
 Release: version 1.0, May 2013, Q-Chem Inc. Pittsburgh 
 -------------------------------------------------------
 using 16 threads for integral computing
 -------------------------------------------------------
 OpenMP Integral computing Module                
 Release: version 1.0, May 2013, Q-Chem Inc. Pittsburgh 
 -------------------------------------------------------
 -------------------------------------------------------
 OpenMP BLAS3 based DFT computing Module                
 Release: version 1.0, May 2013, Q-Chem Inc. Pittsburgh 
 -------------------------------------------------------
 A unrestricted SCF calculation will be
 performed using DIIS
 SCF converges when DIIS error is below 1.0e-08
 ---------------------------------------
  Cycle       Energy         DIIS error
 ---------------------------------------
    1    -317.3852051715      6.07e-05  
    2    -317.3852608938      7.17e-06  
    3    -317.3852632305      4.07e-06  
    4    -317.3852634770      3.20e-06  
    5    -317.3852636726      6.64e-07  
    6    -317.3852636933      2.98e-07  
    7    -317.3852636989      1.80e-07  
    8    -317.3852637025      1.10e-07  
    9    -317.3852637037      5.81e-08  
   10    -317.3852637042      1.90e-08  
   11    -317.3852637043      8.63e-09  Convergence criterion met
 ---------------------------------------
 SCF time:   CPU 338.15s  wall 23.00s 
<S^2> =          0.000000000
 SCF   energy in the final basis set =     -317.3852637043
 Total energy in the final basis set =     -317.3852637043
 No wavefunction analysis requested
 Calculating analytic gradient of the SCF energy
 Gradient of SCF Energy
            1           2           3           4           5           6
    1  -0.0000976   0.0001329  -0.0001928   0.0001470  -0.0001344   0.0000936
    2  -0.0000371   0.0005736  -0.0004027   0.0002309   0.0000498  -0.0004515
    3  -0.0000061  -0.0001890   0.0001497  -0.0000804  -0.0000294   0.0001549
            7           8           9
    1   0.0000301  -0.0000295   0.0000508
    2   0.0000235   0.0000529  -0.0000394
    3   0.0000371  -0.0000229  -0.0000140
 Max gradient component =       5.736E-04
 RMS gradient           =       1.891E-04
 Gradient time:  CPU 78.68 s  wall 5.46 s
 Geometry Optimization Parameters
   NAtoms,    NIC,     NZ,  NCons,   NDum,   NFix, NCnnct, MaxDiis
        9      47       0       0       0       0       0       0

 Cartesian Hessian Update
 Hessian Updated using BFGS Update


** GEOMETRY OPTIMIZATION IN DELOCALIZED INTERNAL COORDINATES **
   Searching for a Minimum

   Optimization Cycle:  10

                       Coordinates (Angstroms)
     ATOM                X               Y               Z
      1  C        -1.0101591370   -0.0122893770   -0.0638970585
      2  C         0.4785310688    0.0199940834    0.0161904437
      3  N         1.2959256716   -0.9869891632    0.4871806910
      4  O         0.6900569405   -1.9739837054    0.8606363088
      5  N         1.7441094092    1.9620283909   -0.7211746747
      6  N         1.1656375364    1.0707986647   -0.3827915931
      7  H        -1.4036222968    0.9306063107   -0.4404455004
      8  H        -1.3325513621   -0.8209096538   -0.7217712170
      9  H        -1.4283368306   -0.2044475504    0.9252236003
   Point Group: c1    Number of degrees of freedom:    21


   Energy is   -317.385263704

 Hessian Updated using BFGS Update

 21 Hessian modes will be used to form the next step
  Hessian Eigenvalues:
     0.000972    0.010568    0.042194    0.063835    0.072717    0.076655
     0.155302    0.160403    0.160859    0.201122    0.233413    0.245430
     0.325036    0.337448    0.339048    0.343290    0.369596    0.476021
     0.616856    0.940217    1.318207

 Minimum Search - Taking Simple RFO Step
 Searching for Lamda that Minimizes Along All modes
 Value Taken    Lamda =  -0.00000569
 Step Taken.  Stepsize is  0.068303

                             Maximum     Tolerance    Cnvgd?
         Gradient           0.000414      0.000100      NO
         Displacement       0.054385      0.000400      NO
         Energy change     -0.000003      0.000000      NO


 New Cartesian Coordinates Obtained by Inverse Iteration

 Displacement from previous Coordinates is:  0.082637
 Adding empirical dispersion correction 
 ----------------------------------------------------------------
 Doing -D3(0) with
 s6  =   1.00000
 s8  =   1.00000
 rs6 =   1.28100
 rs8 =   1.09400
 -D3 energy without 3body term =     -0.0018568320 hartrees
 ----------------------------------------------------------------
             Standard Nuclear Orientation (Angstroms)
    I     Atom           X                Y                Z
 ----------------------------------------------------------------
    1      C      -1.0099670705    -0.0119003885    -0.0624943138
    2      C       0.4786833569     0.0199698446     0.0152503710
    3      N       1.2961824153    -0.9903602011     0.4798679906
    4      O       0.6897061686    -1.9790135450     0.8476887384
    5      N       1.7433592471     1.9668236648    -0.7111898555
    6      N       1.1659298296     1.0729912805    -0.3775309176
    7      H      -1.4028197200     0.9228134099    -0.4595955432
    8      H      -1.3317949589    -0.8344958212    -0.7029755212
    9      H      -1.4296882682    -0.1820202439     0.9301300512
 ----------------------------------------------------------------
 Nuclear Repulsion Energy =   211.4730800950 hartrees
 There are       22 alpha and       22 beta electrons
 Applying Cartesian multipole field
    Component          Value
    ---------          -----
     (2,0,0)        1.00000E-11
     (0,2,0)        2.00000E-11
     (0,0,2)       -3.00000E-10
 Nucleus-field energy     =    -0.0000000070 hartrees
 Requested basis set is def2-TZVP
 There are 78 shells and 204 basis functions
 A cutoff of  1.0D-11 yielded   2864 shell pairs
 There are     20036 function pairs (     26418 Cartesian)
 Smallest overlap matrix eigenvalue = 1.46E-04
 Guess MOs from SCF MO coefficient file
 Reading MOs from coefficient file
 Reading MOs from coefficient file

 -----------------------------------------------------------------------
  General SCF calculation program by
  Eric Jon Sundstrom, Paul Horn, Yuezhi Mao, Dmitri Zuev, Alec White,
  David Stuck, Shaama M.S., Shane Yost, Joonho Lee, David Small,
  Daniel Levine, Susi Lehtola, Hugh Burton, Evgeny Epifanovsky
 -----------------------------------------------------------------------
 Exchange:     0.1957 Hartree-Fock + 1.0000 wB97X-D3 + LR-HF
 Correlation:  1.0000 wB97X-D3
 Using SG-2 standard quadrature grid
 Dispersion:   Grimme D3
 using 16 threads for integral computing
 -------------------------------------------------------
 OpenMP Integral computing Module                
 Release: version 1.0, May 2013, Q-Chem Inc. Pittsburgh 
 -------------------------------------------------------
 using 16 threads for integral computing
 -------------------------------------------------------
 OpenMP Integral computing Module                
 Release: version 1.0, May 2013, Q-Chem Inc. Pittsburgh 
 -------------------------------------------------------
 -------------------------------------------------------
 OpenMP BLAS3 based DFT computing Module                
 Release: version 1.0, May 2013, Q-Chem Inc. Pittsburgh 
 -------------------------------------------------------
 A unrestricted SCF calculation will be
 performed using DIIS
 SCF converges when DIIS error is below 1.0e-08
 ---------------------------------------
  Cycle       Energy         DIIS error
 ---------------------------------------
    1    -317.3845904317      1.20e-04  
    2    -317.3852565334      1.43e-05  
[...]
    4  -0.2298724   0.0993963  -0.0516734   0.0416716  -0.0087934   0.0055922
    5   0.0735395  -0.0425113   0.0124001  -0.0177140  -0.1439511   0.0590089
    6  -0.0412657   0.0139124  -0.0307829   0.0092947   0.0595169  -0.0184263
    7   0.5022163   0.1740641  -0.0438959  -0.2639526  -0.2557474   0.0893431
    8   0.1740641   0.5486354  -0.1947576  -0.2489414  -0.4155243   0.1429076
    9  -0.0438959  -0.1947576   0.1168661   0.0865794   0.1426474  -0.0772591
   10  -0.2639526  -0.2489414   0.0865794   0.2074591   0.2479454  -0.0889614
   11  -0.2557474  -0.4155243   0.1426474   0.2479454   0.5446067  -0.1980883
   12   0.0893431   0.1429076  -0.0772591  -0.0889614  -0.1980883   0.0921398
   13  -0.0132462   0.0297377  -0.0131709  -0.0027444  -0.0136298   0.0055086
   14  -0.0100075   0.0414821  -0.0145326  -0.0053192  -0.0156650   0.0048190
   15   0.0028307  -0.0122036   0.0119735   0.0021688   0.0043044  -0.0045697
   16   0.0311864  -0.0512513   0.0236713   0.0090532   0.0313344  -0.0129093
   17  -0.0126913  -0.1287406   0.0430672   0.0222085   0.0241356  -0.0028954
   18   0.0081391   0.0407839  -0.0361126  -0.0092673  -0.0022840   0.0142065
   19  -0.0082650  -0.0003617  -0.0003227   0.0022577  -0.0023573   0.0010067
   20  -0.0017348  -0.0016560   0.0009204   0.0018659   0.0007384  -0.0000908
   21   0.0002007   0.0008402   0.0003789  -0.0005333  -0.0003248   0.0003748
   22   0.0005401  -0.0035277   0.0053434   0.0020603   0.0027404  -0.0018992
   23   0.0008180  -0.0002647  -0.0012112  -0.0004647   0.0000358   0.0004788
   24  -0.0005270  -0.0024365   0.0006788   0.0016847   0.0008009  -0.0002343
   25   0.0007583  -0.0063634  -0.0012596   0.0022010   0.0034077  -0.0002724
   26   0.0010248   0.0017938  -0.0002243  -0.0015725  -0.0004661  -0.0001094
   27  -0.0000640   0.0003468  -0.0017681  -0.0005272   0.0000008   0.0004444
           13          14          15          16          17          18
    1   0.0017550   0.0045222  -0.0021419  -0.0186446  -0.0113614   0.0042601
    2   0.0034256   0.0012037   0.0027351  -0.0366586  -0.0093485  -0.0041085
    3  -0.0015466   0.0029430   0.0059542   0.0141493  -0.0028258  -0.0115365
    4   0.0080543  -0.0306511   0.0118675  -0.1957802  -0.1269988   0.0420772
    5  -0.0654881  -0.0739048   0.0324137  -0.0624856  -0.1882237   0.0568869
    6   0.0258004   0.0343769   0.0039016   0.0162292   0.0532080  -0.0587377
    7  -0.0132462  -0.0100075   0.0028307   0.0311864  -0.0126913   0.0081391
    8   0.0297377   0.0414821  -0.0122036  -0.0512513  -0.1287406   0.0407839
    9  -0.0131709  -0.0145326   0.0119735   0.0236713   0.0430672  -0.0361126
   10  -0.0027444  -0.0053192   0.0021688   0.0090532   0.0222085  -0.0092673
   11  -0.0136298  -0.0156650   0.0043044   0.0313344   0.0241356  -0.0022840
   12   0.0055086   0.0048190  -0.0045697  -0.0129093  -0.0028954   0.0142065
   13   0.3718358   0.5404326  -0.1979857  -0.3630448  -0.4956010   0.1820144
   14   0.5404326   0.8531829  -0.2990664  -0.4928728  -0.8079804   0.2730645
   15  -0.1979857  -0.2990664   0.1410839   0.1808824   0.2728964  -0.1578807
   16  -0.3630448  -0.4928728   0.1808824   0.5404085   0.6146496  -0.2229648
   17  -0.4956010  -0.8079804   0.2728964   0.6146496   1.1116679  -0.3654904
   18   0.1820144   0.2730645  -0.1578807  -0.2229648  -0.3654904   0.2491996
   19  -0.0021475  -0.0028310   0.0010439   0.0043585   0.0050228  -0.0018359
   20   0.0004917   0.0009290  -0.0004266  -0.0009471  -0.0004517   0.0005346
   21  -0.0003685  -0.0007285   0.0000192   0.0006400   0.0010556   0.0007308
   22  -0.0002361  -0.0008917   0.0022697  -0.0038152   0.0004123  -0.0055315
   23   0.0002088   0.0003934  -0.0003088  -0.0004093  -0.0005787  -0.0004048
   24  -0.0003826  -0.0004375  -0.0001278   0.0011462   0.0010964  -0.0001656
   25  -0.0002262  -0.0023814  -0.0009353  -0.0037218   0.0043593   0.0031088
   26   0.0004225   0.0003592  -0.0003442  -0.0013593  -0.0004800   0.0010178
   27   0.0001308  -0.0004387  -0.0003540  -0.0008443  -0.0001120   0.0002962
           19          20          21          22          23          24
    1  -0.0839347   0.0858450  -0.0390960  -0.0665442  -0.0576354  -0.0448768
    2   0.0819187  -0.2494080   0.0925472  -0.0589710  -0.2079470  -0.1214272
    3  -0.0373612   0.0926803  -0.0888056  -0.0458562  -0.1213774  -0.1357805
    4  -0.0124409  -0.0039086   0.0010288  -0.0171815  -0.0035589  -0.0018718
    5   0.0288888   0.0032177  -0.0011904  -0.0256095   0.0016192   0.0026121
    6  -0.0129021  -0.0031251  -0.0029110  -0.0172015   0.0031734   0.0016759
    7  -0.0082650  -0.0017348   0.0002007   0.0005401   0.0008180  -0.0005270
    8  -0.0003617  -0.0016560   0.0008402  -0.0035277  -0.0002647  -0.0024365
    9  -0.0003227   0.0009204   0.0003789   0.0053434  -0.0012112   0.0006788
   10   0.0022577   0.0018659  -0.0005333   0.0020603  -0.0004647   0.0016847
   11  -0.0023573   0.0007384  -0.0003248   0.0027404   0.0000358   0.0008009
   12   0.0010067  -0.0000908   0.0003748  -0.0018992   0.0004788  -0.0002343
   13  -0.0021475   0.0004917  -0.0003685  -0.0002361   0.0002088  -0.0003826
   14  -0.0028310   0.0009290  -0.0007285  -0.0008917   0.0003934  -0.0004375
   15   0.0010439  -0.0004266   0.0000192   0.0022697  -0.0003088  -0.0001278
   16   0.0043585  -0.0009471   0.0006400  -0.0038152  -0.0004093   0.0011462
   17   0.0050228  -0.0004517   0.0010556   0.0004123  -0.0005787   0.0010964
   18  -0.0018359   0.0005346   0.0007308  -0.0055315  -0.0004048  -0.0001656
   19   0.0919398  -0.0908066   0.0416607   0.0034007  -0.0078896   0.0053465
   20  -0.0908066   0.2666587  -0.1012213   0.0089307  -0.0178112   0.0108823
   21   0.0416607  -0.1012213   0.0908418   0.0085579  -0.0156108   0.0083095
   22   0.0034007   0.0089307   0.0085579   0.0779905   0.0670348   0.0479351
   23  -0.0078896  -0.0178112  -0.0156108   0.0670348   0.2212005   0.1321923
   24   0.0053465   0.0108823   0.0083095   0.0479351   0.1321923   0.1424220
   25   0.0048314   0.0002637  -0.0120903   0.0037854   0.0018962  -0.0084544
   26  -0.0115842  -0.0022168   0.0246328   0.0098816   0.0033527  -0.0232829
   27   0.0033641  -0.0001538  -0.0089384   0.0063823   0.0030684  -0.0167778
           25          26          27
    1  -0.0827581  -0.0121010   0.0931037
    2  -0.0124388  -0.0499548   0.0321200
    3   0.0948799   0.0320406  -0.2776433
    4  -0.0204385  -0.0019097   0.0012511
    5  -0.0059410  -0.0015514  -0.0001062
    6   0.0278197   0.0009951   0.0079535
    7   0.0007583   0.0010248  -0.0000640
    8  -0.0063634   0.0017938   0.0003468
    9  -0.0012596  -0.0002243  -0.0017681
   10   0.0022010  -0.0015725  -0.0005272
   11   0.0034077  -0.0004661   0.0000008
   12  -0.0002724  -0.0001094   0.0004444
   13  -0.0002262   0.0004225   0.0001308
   14  -0.0023814   0.0003592  -0.0004387
   15  -0.0009353  -0.0003442  -0.0003540
   16  -0.0037218  -0.0013593  -0.0008443
   17   0.0043593  -0.0004800  -0.0001120
   18   0.0031088   0.0010178   0.0002962
   19   0.0048314  -0.0115842   0.0033641
   20   0.0002637  -0.0022168  -0.0001538
   21  -0.0120903   0.0246328  -0.0089384
   22   0.0037854   0.0098816   0.0063823
   23   0.0018962   0.0033527   0.0030684
   24  -0.0084544  -0.0232829  -0.0167778
   25   0.0955686   0.0171977  -0.1027964
   26   0.0171977   0.0491634  -0.0347254
   27  -0.1027964  -0.0347254   0.2967874
 Gradient time:  CPU 3631.56 s  wall 1069.65 s
 **********************************************************************
 **                                                                  **
 **                       VIBRATIONAL ANALYSIS                       **
 **                       --------------------                       **
 **                                                                  **
 **        VIBRATIONAL FREQUENCIES (CM**-1) AND NORMAL MODES         **
 **     FORCE CONSTANTS (mDYN/ANGSTROM) AND REDUCED MASSES (AMU)     **
 **                  INFRARED INTENSITIES (KM/MOL)                   **
 **                                                                  **
 **********************************************************************
 

 Mode:                 1                      2                      3
 Frequency:       110.17                 193.07                 197.25
 Force Cnst:      0.0075                 0.1656                 0.2055
 Red. Mass:       1.0465                 7.5403                 8.9635
 IR Active:          YES                    YES                    YES
 IR Intens:        0.035                  0.326                  5.239
 Raman Active:       YES                    YES                    YES
               X      Y      Z        X      Y      Z        X      Y      Z
 C         -0.002  0.010  0.012    0.040  0.007 -0.054   -0.258 -0.134  0.030
 C          0.000 -0.009 -0.020    0.012  0.160  0.438   -0.263  0.111  0.029
 N          0.002 -0.013 -0.030   -0.009  0.059  0.247   -0.032  0.244 -0.050
 O          0.004 -0.004 -0.003   -0.014 -0.142 -0.304    0.247  0.076 -0.082
 N         -0.003  0.012  0.032   -0.049 -0.073 -0.310    0.427 -0.314  0.091
 N         -0.001  0.002  0.007    0.019  0.040  0.122   -0.176  0.046 -0.005
 H          0.030 -0.217 -0.516    0.098 -0.113 -0.370   -0.419 -0.220 -0.010
 H          0.003 -0.333  0.475    0.364 -0.150 -0.013   -0.110 -0.218  0.064
 H         -0.047  0.582  0.077   -0.324  0.162 -0.187   -0.239 -0.165  0.033
 TransDip  -0.002  0.003  0.005    0.010  0.008  0.013   -0.072 -0.011  0.003

 Mode:                 4                      5                      6
 Frequency:       268.57                 369.36                 566.92
 Force Cnst:      0.1491                 0.4860                 2.4764
 Red. Mass:       3.5075                 6.0460                13.0773
 IR Active:          YES                    YES                    YES
 IR Intens:        4.296                  0.136                  2.847
 Raman Active:       YES                    YES                    YES
               X      Y      Z        X      Y      Z        X      Y      Z
 C         -0.088  0.282 -0.119   -0.005  0.040  0.097   -0.005 -0.015 -0.035
 C         -0.071 -0.065  0.018    0.020 -0.136 -0.336    0.018 -0.148 -0.376
 N          0.008 -0.010  0.003   -0.024  0.169  0.420   -0.002 -0.034 -0.095
 O          0.227 -0.115  0.063    0.011 -0.081 -0.202   -0.000  0.025  0.070
 N         -0.088 -0.051  0.017   -0.003  0.010  0.025    0.020 -0.142 -0.366
 N         -0.022 -0.083  0.030    0.004 -0.028 -0.067   -0.027  0.288  0.731
 H          0.233  0.420 -0.121   -0.023  0.091  0.226   -0.029 -0.003  0.015
 H         -0.277  0.427 -0.215   -0.422  0.070  0.286   -0.142  0.016 -0.000
 H         -0.259  0.390 -0.177    0.400  0.162  0.294    0.152 -0.028  0.033
 TransDip  -0.051  0.038 -0.019   -0.001  0.004  0.011   -0.004  0.022  0.049

 Mode:                 7                      8                      9
 Frequency:       590.73                 624.43                 824.79
 Force Cnst:      1.3014                 3.1350                 1.9511
 Red. Mass:       6.3300                13.6465                 4.8679
 IR Active:          YES                    YES                    YES
 IR Intens:       10.771                  1.229                 31.278
 Raman Active:       YES                    YES                    YES
               X      Y      Z        X      Y      Z        X      Y      Z
 C         -0.218 -0.067  0.015    0.011 -0.019  0.008    0.374  0.057 -0.001
 C         -0.107  0.107 -0.043   -0.030 -0.131  0.053   -0.055  0.059 -0.026
 N         -0.232  0.057 -0.034    0.135  0.330 -0.126   -0.321  0.152 -0.080
 O          0.111 -0.123  0.055   -0.072  0.467 -0.192    0.078 -0.080  0.037
 N         -0.021  0.188 -0.070   -0.298 -0.252  0.086   -0.052 -0.095  0.035
 N          0.447 -0.088  0.048    0.253 -0.493  0.210   -0.078 -0.045  0.013
 H         -0.627 -0.228  0.055    0.226  0.061 -0.015    0.109 -0.058  0.028
 H          0.022 -0.231  0.108   -0.053  0.032 -0.021    0.563 -0.094  0.101
 H          0.005 -0.249  0.085   -0.052  0.046 -0.012    0.559 -0.118  0.054
 TransDip  -0.028  0.093 -0.041   -0.035 -0.003 -0.001    0.012  0.166 -0.066

 Mode:                10                     11                     12
 Frequency:       993.38                1059.49                1251.60
 Force Cnst:      1.0062                 0.8863                 4.6085
 Red. Mass:       1.7305                 1.3401                 4.9932
 IR Active:          YES                    YES                    YES
 IR Intens:      136.592                  0.534                412.620
 Raman Active:       YES                    YES                    YES
               X      Y      Z        X      Y      Z        X      Y      Z
 C          0.027 -0.143  0.062   -0.007  0.056  0.135    0.088 -0.142  0.060
 C         -0.016 -0.103  0.038    0.004 -0.031 -0.085   -0.170  0.438 -0.186
 N         -0.091  0.076 -0.035    0.000  0.005  0.017    0.051 -0.190  0.079
 O          0.004 -0.009  0.004    0.000 -0.002 -0.005    0.039  0.028 -0.009
 N          0.038  0.057 -0.021   -0.001  0.001  0.005   -0.055 -0.050  0.017
 N          0.036  0.046 -0.016    0.000 -0.005 -0.011    0.016 -0.095  0.040
 H          0.736  0.138 -0.009    0.019 -0.125 -0.288    0.528  0.048  0.036
 H         -0.343  0.188 -0.183    0.624  0.056 -0.213   -0.168  0.236 -0.305
 H         -0.351  0.255 -0.047   -0.604 -0.200 -0.167   -0.162  0.403  0.026
 TransDip   0.067  0.343 -0.133    0.002 -0.016 -0.017   -0.090 -0.599  0.237

 Mode:                13                     14                     15
 Frequency:      1398.26                1430.70                1473.69
 Force Cnst:      3.2033                 1.9627                 1.3314
 Red. Mass:       2.7808                 1.6275                 1.0405
 IR Active:          YES                    YES                    YES
 IR Intens:        3.687                  3.475                 11.013
 Raman Active:       YES                    YES                    YES
               X      Y      Z        X      Y      Z        X      Y      Z
 C         -0.020 -0.047  0.017    0.182  0.024  0.000    0.001 -0.018 -0.048
 C          0.337  0.108 -0.024   -0.125 -0.050  0.013    0.002 -0.007 -0.018
 N         -0.111  0.039 -0.022    0.021 -0.028  0.013    0.000  0.002  0.002
 O          0.022 -0.013  0.007    0.002  0.025 -0.010   -0.001 -0.001  0.000
 N         -0.046 -0.085  0.032    0.016  0.031 -0.012   -0.000 -0.000  0.000
 N         -0.041 -0.013  0.003    0.019  0.006 -0.001   -0.000 -0.000 -0.000
 H         -0.498 -0.199  0.072   -0.511 -0.232  0.084   -0.026  0.290  0.654
 H         -0.433  0.244 -0.154   -0.500  0.118  0.203    0.327 -0.324  0.217
 H         -0.440  0.271 -0.118   -0.481 -0.083 -0.280   -0.326  0.323 -0.123
 TransDip   0.018  0.055 -0.021   -0.043 -0.039  0.014   -0.003  0.043  0.097

 Mode:                16                     17                     18
 Frequency:      1500.80                1587.06                2277.23
 Force Cnst:      1.4691                19.1606                42.5163
 Red. Mass:       1.1070                12.9114                13.9152
 IR Active:          YES                    YES                    YES
 IR Intens:       36.890                263.018                650.097
 Raman Active:       YES                    YES                    YES
               X      Y      Z        X      Y      Z        X      Y      Z
 C          0.017 -0.037  0.014   -0.047  0.018 -0.011    0.001 -0.007  0.002
 C         -0.050 -0.055  0.019    0.076 -0.193  0.082   -0.095 -0.052  0.016
 N          0.021  0.009 -0.003   -0.418 -0.493  0.174   -0.001 -0.080  0.032
 O         -0.010 -0.002  0.000    0.297  0.486 -0.179    0.018  0.037 -0.014
 N          0.009  0.014 -0.005    0.059  0.083 -0.030   -0.335 -0.513  0.187
 N          0.005  0.007 -0.002   -0.039  0.005 -0.004    0.388  0.603 -0.220
 H         -0.383 -0.164  0.074   -0.003  0.032  0.002    0.042  0.023 -0.007
 H          0.251  0.274 -0.506    0.246 -0.061 -0.065    0.023 -0.028 -0.006
 H          0.198  0.592  0.168    0.220  0.030  0.108    0.024 -0.013  0.028
 TransDip  -0.023  0.179 -0.073    0.018 -0.481  0.195    0.318  0.704 -0.265

 Mode:                19                     20                     21
 Frequency:      3074.25                3143.21                3172.29
 Force Cnst:      5.7649                 6.4189                 6.5400
 Red. Mass:       1.0353                 1.1027                 1.1030
 IR Active:          YES                    YES                    YES
 IR Intens:       10.428                  4.927                  3.302
 Raman Active:       YES                    YES                    YES
               X      Y      Z        X      Y      Z        X      Y      Z
 C          0.049  0.011 -0.002    0.005 -0.036 -0.086    0.008 -0.085  0.036
 C          0.000  0.000  0.000    0.000  0.000  0.000   -0.002 -0.001  0.000
 N         -0.000  0.001 -0.000    0.000 -0.000 -0.000   -0.000 -0.001  0.000
 O         -0.000 -0.000  0.000    0.000  0.000  0.000    0.000  0.000 -0.000
 N          0.001  0.001 -0.000    0.000 -0.000 -0.000    0.000  0.000 -0.000
 N         -0.001 -0.001  0.000    0.000 -0.000 -0.000    0.000 -0.000  0.000
 H         -0.171  0.416 -0.190    0.004 -0.013 -0.010   -0.314  0.740 -0.338
 H         -0.173 -0.471 -0.356    0.210  0.544  0.390    0.103  0.255  0.210
 H         -0.230 -0.075  0.567   -0.275 -0.102  0.643    0.130  0.026 -0.306
 TransDip   0.103 -0.007  0.007    0.006 -0.025 -0.066    0.003 -0.053  0.024

 STANDARD THERMODYNAMIC QUANTITIES AT   298.15 K  AND     1.00 ATM

   This Molecule has  0 Imaginary Frequencies
   Zero point vibrational energy:       37.322 kcal/mol

   Atom    1 Element C  Has Mass   12.00000
   Atom    2 Element C  Has Mass   12.00000
   Atom    3 Element N  Has Mass   14.00307
   Atom    4 Element O  Has Mass   15.99491
   Atom    5 Element N  Has Mass   14.00307
   Atom    6 Element N  Has Mass   14.00307
   Atom    7 Element H  Has Mass    1.00783
   Atom    8 Element H  Has Mass    1.00783
   Atom    9 Element H  Has Mass    1.00783
   Molecular Mass:    85.027610 amu
   Principal axes and moments of inertia in amu*Bohr^2:
                             1           2           3
    Eigenvalues --      236.60975   645.59861   871.04622
          X               0.25980     0.96414    -0.05420
          Y               0.90091    -0.22179     0.37307
          Z              -0.34767     0.14576     0.92622
   Rotational Symmetry Number is   1
   The Molecule is an Asymmetric Top
   Translational Enthalpy:        0.889 kcal/mol
   Rotational Enthalpy:           0.889 kcal/mol
   Vibrational Enthalpy:         39.409 kcal/mol
   gas constant (RT):             0.592 kcal/mol
   Translational Entropy:        39.234  cal/mol.K
   Rotational Entropy:           26.389  cal/mol.K
   Vibrational Entropy:          12.154  cal/mol.K

   Total Enthalpy:               41.778 kcal/mol
   Total Entropy:                77.778  cal/mol.K
Archival summary:
1\1\nid00469\FREQ\ProcedureUnspecified\BasisUnspecified\1323\cgrambow\TueFeb1223:46:162019TueFeb1223:46:162019\0\\#,FREQ,ProcedureUnspecified,BasisUnspecified,\\0,1\N\N,1,1.11504\C,1,1.31797,2,179.949\N,3,1.37952,1,112.07,2,7.02661,0\O,4,1.21716,3,113.67,1,179.97,0\C,3,1.49095,1,121.443,2,-172.967,0\H,6,1.08889,3,111.15,1,1.35447,0\H,6,1.09101,3,109.806,1,122.159,0\H,6,1.09118,3,110.069,1,-119.547,0\\\@

 Total job time:  1074.34s(wall), 3697.20s(cpu) 
 Tue Feb 12 23:46:16 2019

        *************************************************************
        *                                                           *
        *  Thank you very much for using Q-Chem.  Have a nice day.  *
        *                                                           *
        *************************************************************


