
Running Job 1 of 3 ts_optfreq1122.in
qchem ts_optfreq1122.in_10229.0 /tmp/qchem10229/ 1
/global/common/cori/software/qchem/5.1/exe/qcprog.exe ts_optfreq1122.in_10229.0 /tmp/qchem10229/
Check license passed

                  Welcome to Q-Chem
     A Quantum Leap Into The Future Of Chemistry


 Q-Chem 5.1, Q-Chem, Inc., Pleasanton, CA (2018)

 Yihan Shao,  Zhengting Gan,  E. Epifanovsky,  A. T. B. Gilbert,  M. Wormit,  
 J. Kussmann,  A. W. Lange,  A. Behn,  Jia Deng,  Xintian Feng,  D. Ghosh,  
 M. Goldey,  P. R. Horn,  L. D. Jacobson,  I. Kaliman,  T. Kus,  A. Landau,  
 Jie Liu,  E. I. Proynov,  R. M. Richard,  R. P. Steele,  E. J. Sundstrom,  
 H. L. Woodcock III,  P. M. Zimmerman,  D. Zuev,  B. Albrecht,  E. Alguire,  
 S. A. Baeppler,  D. Barton,  Z. Benda,  Y. A. Bernard,  E. J. Berquist,  
 K. B. Bravaya,  H. Burton,  D. Casanova,  Chun-Min Chang,  Yunqing Chen,  
 A. Chien,  K. D. Closser,  M. P. Coons,  S. Coriani,  S. Dasgupta,  
 A. L. Dempwolff,  M. Diedenhofen,  Hainam Do,  R. G. Edgar,  Po-Tung Fang,  
 S. Faraji,  S. Fatehi,  Qingguo Feng,  K. D. Fenk,  J. Fosso-Tande,  
 Qinghui Ge,  A. Ghysels,  G. Gidofalvi,  J. Gomes,  J. Gonthier,  A. Gunina,  
 D. Hait,  M. W. D. Hanson-Heine,  P. H. P. Harbach,  A. W. Hauser,  
 J. E. Herr,  E. G. Hohenstein,  Z. C. Holden,  Kerwin Hui,  B. C. Huynh,  
 T.-C. Jagau,  Hyunjun Ji,  B. Kaduk,  K. Khistyaev,  Jaehoon Kim,  
 P. Klunzinger,  K. Koh,  D. Kosenkov,  L. Koulias,  T. Kowalczyk,  
 C. M. Krauter,  A. Kunitsa,  Ka Un Lao,  A. Laurent,  K. V. Lawler,  
 Joonho Lee,  D. Lefrancois,  S. Lehtola,  D. S. Levine,  Yi-Pei Li,  
 You-Sheng Lin,  Fenglai Liu,  E. Livshits,  A. Luenser,  P. Manohar,  
 E. Mansoor,  S. F. Manzer,  Shan-Ping Mao,  Yuezhi Mao,  N. Mardirossian,  
 A. V. Marenich,  T. Markovich,  L. A. Martinez-Martinez,  S. A. Maurer,  
 N. J. Mayhall,  S. C. McKenzie,  J.-M. Mewes,  A. F. Morrison,  
 J. W. Mullinax,  K. Nanda,  T. S. Nguyen-Beck,  R. Olivares-Amaya,  
 J. A. Parkhill,  T. M. Perrine,  F. Plasser,  P. Pokhilko,  S. Prager,  
 A. Prociuk,  E. Ramos,  D. R. Rehn,  F. Rob,  M. Schneider,  N. Sergueev,  
 S. M. Sharada,  S. Sharma,  D. W. Small,  T. Stauch,  T. Stein,  
 Yu-Chuan Su,  A. J. W. Thom,  A. Tkatchenko,  T. Tsuchimochi,  N. M. Tubman,  
 L. Vogt,  M. L. Vidal,  O. Vydrov,  M. A. Watson,  J. Wenzel,  
 M. de Wergifosse,  T. A. Wesolowski,  A. White,  J. Witte,  A. Yamada,  
 Jun Yang,  K. Yao,  S. Yeganeh,  S. R. Yost,  Zhi-Qiang You,  A. Zech,  
 Igor Ying Zhang,  Xing Zhang,  Yan Zhao,  Ying Zhu,  B. R. Brooks,  
 G. K. L. Chan,  C. J. Cramer,  M. S. Gordon,  W. J. Hehre,  A. Klamt,  
 M. W. Schmidt,  C. D. Sherrill,  D. G. Truhlar,  A. Aspuru-Guzik,  R. Baer,  
 A. T. Bell,  N. A. Besley,  Jeng-Da Chai,  R. A. DiStasio Jr.,  A. Dreuw,  
 B. D. Dunietz,  T. R. Furlani,  Chao-Ping Hsu,  Yousung Jung,  Jing Kong,  
 D. S. Lambrecht,  WanZhen Liang,  C. Ochsenfeld,  V. A. Rassolov,  
 L. V. Slipchenko,  J. E. Subotnik,  T. Van Voorhis,  J. M. Herbert,  
 A. I. Krylov,  P. M. W. Gill,  M. Head-Gordon

 Contributors to earlier versions of Q-Chem not listed above: 
 R. D. Adamson,  B. Austin,  J. Baker,  G. J. O. Beran,  K. Brandhorst,  
 S. T. Brown,  E. F. C. Byrd,  A. K. Chakraborty,  C.-L. Cheng,  
 Siu Hung Chien,  D. M. Chipman,  D. L. Crittenden,  H. Dachsel,  
 R. J. Doerksen,  A. D. Dutoi,  L. Fusti-Molnar,  W. A. Goddard III,  
 A. Golubeva-Zadorozhnaya,  S. R. Gwaltney,  G. Hawkins,  A. Heyden,  
 S. Hirata,  G. Kedziora,  F. J. Keil,  C. Kelley,  Jihan Kim,  R. A. King,  
 R. Z. Khaliullin,  P. P. Korambath,  W. Kurlancheek,  A. M. Lee,  M. S. Lee,  
 S. V. Levchenko,  Ching Yeh Lin,  D. Liotard,  R. C. Lochan,  I. Lotan,  
 P. E. Maslen,  N. Nair,  D. P. O'Neill,  D. Neuhauser,  E. Neuscamman,  
 C. M. Oana,  R. Olson,  B. Peters,  R. Peverati,  P. A. Pieniazek,  
 Y. M. Rhee,  J. Ritchie,  M. A. Rohrdanz,  E. Rosta,  N. J. Russ,  
 H. F. Schaefer III,  N. E. Schultz,  N. Shenvi,  A. C. Simmonett,  A. Sodt,  
 D. Stuck,  K. S. Thanthiriwatte,  V. Vanovschi,  Tao Wang,  A. Warshel,  
 C. F. Williams,  Q. Wu,  X. Xu,  W. Zhang

 Please cite Q-Chem as follows:
 Y. Shao et al., Mol. Phys. 113, 184-215 (2015)
 DOI: 10.1080/00268976.2014.952696

 Q-Chem 5.1.0 for Intel X86 EM64T Linux

 Parts of Q-Chem use Armadillo 8.300.2 (Tropical Shenanigans).
 http://arma.sourceforge.net/

 Q-Chem begins on Tue Feb 12 23:30:26 2019  

Host: cori07
0

     Scratch files written to /tmp/qchem10229//
 Jun2518 |scratch|qcdevops|jenkins|workspace|build_RNUM -1
Processing $rem in /global/common/cori/software/qchem/5.1/config/preferences.
 MEM_TOTAL  96000 

Checking the input file for inconsistencies... 	...done.

--------------------------------------------------------------
User input:
--------------------------------------------------------------
$molecule
0 1
C  -1.1282578210   0.0517219139  -0.0028455136
C   0.3694145378   0.0228747461  -0.0673094051
N   1.0267506369  -1.0593300013   0.8606001068
O   1.3306695013  -2.0548258570   0.2686703613
N   1.8786112458   1.8378123555  -0.7092308553
N   1.1256628777   1.0093350454  -0.3980358893
H  -1.5071669131   0.9733428585  -0.4621182047
H  -1.5660338113  -0.8041829161  -0.5382678693
H  -1.4869792541   0.0189938551   1.0397872694
$end

$rem
JOBTYPE                   FREQ
METHOD                    wB97X-D3
BASIS                     def2-TZVP
UNRESTRICTED              TRUE
SCF_ALGORITHM             DIIS
MAX_SCF_CYCLES            100
SCF_CONVERGENCE           8
SYM_IGNORE                TRUE
SYMMETRY                  FALSE
WAVEFUNCTION_ANALYSIS     FALSE
$end

--------------------------------------------------------------
 Adding empirical dispersion correction 
 ----------------------------------------------------------------
 Doing -D3(0) with
 s6  =   1.00000
 s8  =   1.00000
 rs6 =   1.28100
 rs8 =   1.09400
 -D3 energy without 3body term =     -0.0018292131 hartrees
 ----------------------------------------------------------------
             Standard Nuclear Orientation (Angstroms)
    I     Atom           X                Y                Z
 ----------------------------------------------------------------
    1      C      -1.1282578210     0.0517219139    -0.0028455136
    2      C       0.3694145378     0.0228747461    -0.0673094051
    3      N       1.0267506369    -1.0593300013     0.8606001068
    4      O       1.3306695013    -2.0548258570     0.2686703613
    5      N       1.8786112458     1.8378123555    -0.7092308553
    6      N       1.1256628777     1.0093350454    -0.3980358893
    7      H      -1.5071669131     0.9733428585    -0.4621182047
    8      H      -1.5660338113    -0.8041829161    -0.5382678693
    9      H      -1.4869792541     0.0189938551     1.0397872694
 ----------------------------------------------------------------
 Nuclear Repulsion Energy =   205.6105594672 hartrees
 There are       22 alpha and       22 beta electrons
 Requested basis set is def2-TZVP
 There are 78 shells and 204 basis functions

 Total QAlloc Memory Limit  96000 MB
 Mega-Array Size       188 MB
 MEM_STATIC part       192 MB

                       Distance Matrix (Angstroms)
             C (  1)   C (  2)   N (  3)   O (  4)   N (  5)   N (  6)
   C (  2)  1.499337
   N (  3)  2.573720  1.569801
   O (  4)  3.249244  2.313814  1.197397
   N (  5)  3.567963  2.446168  3.403450  4.050823
   N (  6)  2.480596  1.286233  2.423494  3.142548  1.161959
   H (  7)  1.097219  2.140285  3.507432  4.213926  3.503122  2.633855
   H (  8)  1.100408  2.156800  2.957104  3.256708  4.344531  3.248653
   H (  9)  1.103103  2.161452  2.741118  3.582526  4.206467  3.142294
             H (  7)   H (  8)
   H (  8)  1.780130
   H (  9)  1.779581  1.781608
 
 A cutoff of  1.0D-11 yielded   2850 shell pairs
 There are     20062 function pairs (     26497 Cartesian)
 
 -------------------------------------------------------
 OpenMP Integral Computing Module                       
 Release: version 1.0, May 2013, Q-Chem Inc. Pittsburgh 
 -------------------------------------------------------
 Integral Job Info:
 Integral job number is                      11
 Integral operator is                         1
 short-range coefficients              19572800
 long-range coefficients              100000000
 Omega coefficients                         250
 if combine SR and LR in K                    1
 Integral screening is                        0
 Integral computing path is                   2
 max size of driver memory is            800000
 size of driver memory is                776718
 size of scratch memory is              4473992
 max col of scratch BK array              10000
 max len of scratch array in speh3          662
 max len of scratch index in speh4           32
 max int batch size is                      520
 min int batch size is                       52
 fixed nKL is                                52
 max L of basis functions is                  3
 order of int derivative is                   0
 number of shells is                         78
 number of basis is                         234
 number of cartesian basis is               234
 number of contracted shell pairs          2850
 number of primitive shell pairs           6825
 maxK2 (contraction) of shell pair           36
 max number of K2 of shell pair               1
 max number of CS2 of shell pair            372
 max number of PS2 of shell pair            888
 mem total for path MDJ                  585496
 -------------------------------------------------------
 Smallest overlap matrix eigenvalue = 2.09E-04
 Guess from superposition of atomic densities
 Warning:  Energy on first SCF cycle will be non-variational
 SAD guess density has 44.000000 electrons

 -----------------------------------------------------------------------
  General SCF calculation program by
  Eric Jon Sundstrom, Paul Horn, Yuezhi Mao, Dmitri Zuev, Alec White,
  David Stuck, Shaama M.S., Shane Yost, Joonho Lee, David Small,
  Daniel Levine, Susi Lehtola, Hugh Burton, Evgeny Epifanovsky
 -----------------------------------------------------------------------
 Exchange:     0.1957 Hartree-Fock + 1.0000 wB97X-D3 + LR-HF
 Correlation:  1.0000 wB97X-D3
 Using SG-2 standard quadrature grid
 Dispersion:   Grimme D3
 using 16 threads for integral computing
 -------------------------------------------------------
 OpenMP Integral computing Module                
 Release: version 1.0, May 2013, Q-Chem Inc. Pittsburgh 
 -------------------------------------------------------
 using 16 threads for integral computing
 -------------------------------------------------------
 OpenMP Integral computing Module                
 Release: version 1.0, May 2013, Q-Chem Inc. Pittsburgh 
 -------------------------------------------------------
 -------------------------------------------------------
 OpenMP BLAS3 based DFT computing Module                
 Release: version 1.0, May 2013, Q-Chem Inc. Pittsburgh 
 -------------------------------------------------------
 A unrestricted SCF calculation will be
 performed using DIIS
 SCF converges when DIIS error is below 1.0e-08
 ---------------------------------------
  Cycle       Energy         DIIS error
 ---------------------------------------
    1    -318.5209554916      1.91e-02  
    2    -317.2487760279      2.28e-03  
    3    -317.1554195923      3.59e-03  
    4    -317.3395539727      4.20e-04  
    5    -317.3422383390      1.98e-04  
    6    -317.3430490676      6.97e-05  
    7    -317.3431640101      3.52e-05  
    8    -317.3432029696      1.25e-05  
    9    -317.3432131199      7.35e-06  
   10    -317.3432165299      2.32e-06  
   11    -317.3432175114      1.41e-06  
   12    -317.3432178871      8.39e-07  
   13    -317.3432181288      3.67e-07  
   14    -317.3432181628      1.34e-07  
   15    -317.3432181653      4.25e-08  
   16    -317.3432181656      1.76e-08  
   17    -317.3432181657      9.70e-09  Convergence criterion met
 ---------------------------------------
 SCF time:   CPU 507.02s  wall 36.00s 
<S^2> =          0.000000000
 SCF   energy in the final basis set =     -317.3432181657
 Total energy in the final basis set =     -317.3432181657
 No wavefunction analysis requested
 Calculating MO derivatives via CPSCF
 D1JvT checksum  = 864540 39676.3773304927
 D1KAT checksum  = 1798200 3664.6471035709
 D1JvT checksum  = 864540 25371.5913356230
 D1KAT checksum  = 1798200 1553.5049872115
   1         3          27      0.225138    0.033038
   2         3          27      0.049601    0.009113
   3         3          27      0.010896    0.001911
   4         3          27      0.002335    0.000447
   5         4          26      0.000345    0.000061
   6        14          16      0.000040    0.000009
   7        29           1      0.000001    0.000001
   8        30           0      0.000000    0.000000    Roots Converged
 Time for AOints: 174.7 s (CPU) 11.9 s (wall)
 ------------------------------------------------------------------------------
                     AOints        : Timing summary (seconds)
 ------------------------------------------------------------------------------
     job step          cpu (% of tot)      sys (% of tot)     wall (% of tot)
 ------------------------------------------------------------------------------
  cpscf_lag         0.1064E+04 (38.0)   0.2032E-02 (50.4)   0.2144E+03 (32.3)
  iterzp            0.1565E+04 (55.8)   0.1664E-02 (41.3)   0.4365E+03 (65.8)
  make_fx           0.0000E+00 ( 0.0)   0.0000E+00 ( 0.0)   0.0000E+00 ( 0.0)
  AOints            0.1747E+03 ( 6.2)   0.3300E-03 ( 8.2)   0.1192E+02 ( 1.8)
 ------------------------------------------------------------------------------
   Grand Totals     0.2804E+04          0.4028E-02          0.6630E+03
 ------------------------------------------------------------------------------
 Calculating analytic Hessian of the SCF energy
 Polarizability Matrix (a.u.)
            1           2           3
    1 -54.5681146 -11.6468596   5.1777698
    2 -11.6468596 -69.1708286  10.0020890
    3   5.1777698  10.0020890 -37.9832076
 Running MAKENN_D3_FD2ND
 
 Direct stationary perturbation theory relativistic correction:
 
 rels  =       0.100050378057
 relv  =      -0.439235296410
 rel2e =       0.000000000000
 E_rel =      -0.339184918353
 
 Hessian of the SCF Energy
            1           2           3           4           5           6
    1   0.4755094   0.0007569   0.0103147  -0.2182979  -0.0030096   0.0032141
    2   0.0007569   0.5569523  -0.0170394   0.0188563  -0.0638939   0.0118927
    3   0.0103147  -0.0170394   0.5250379   0.0076886   0.0122018  -0.0554106
    4  -0.2182979   0.0188563   0.0076886   0.5722336   0.1796541  -0.0732269
    5  -0.0030096  -0.0638939   0.0122018   0.1796541   0.4441695  -0.1544347
    6   0.0032141   0.0118927  -0.0554106  -0.0732269  -0.1544347   0.1819096
    7  -0.0076806   0.0177482  -0.0058527  -0.0365177  -0.0002850  -0.0132116
    8   0.0094765   0.0035285   0.0072022   0.0027285   0.0131733  -0.0087784
    9  -0.0009658   0.0029234   0.0081691  -0.0209324   0.0267022  -0.1181390
   10  -0.0013917  -0.0010379  -0.0061566  -0.0118895   0.0274635   0.0021153
   11  -0.0028091  -0.0048792   0.0015367   0.0255224  -0.0836993   0.0125164
   12  -0.0016864  -0.0010902  -0.0028871   0.0033391  -0.0054756   0.0534445
   13   0.0043669   0.0029732   0.0037175  -0.0178201  -0.0625686   0.0066864
   14   0.0058498   0.0010092   0.0084232  -0.0519479  -0.0563643   0.0036120
   15  -0.0021290   0.0026382   0.0039971   0.0134417   0.0166746   0.0126674
   16  -0.0229243  -0.0374886   0.0026450  -0.2329536  -0.1377539   0.0713255
   17  -0.0110994  -0.0062353  -0.0149836  -0.1733652  -0.2586534   0.1315322
   18   0.0070243  -0.0013060  -0.0048884   0.0646892   0.1013188  -0.0820315
   19  -0.0781635   0.0734680  -0.0367633  -0.0171763   0.0263065  -0.0153218
   20   0.0757999  -0.2338571   0.0933988  -0.0014939   0.0003894  -0.0010660
   21  -0.0380414   0.0930494  -0.0925167   0.0011993  -0.0026692  -0.0009293
   22  -0.0819697  -0.0743234  -0.0487329  -0.0186570  -0.0242871  -0.0104885
   23  -0.0731100  -0.2034597  -0.0964804  -0.0007181   0.0041497   0.0038116
   24  -0.0467265  -0.0974411  -0.1103933  -0.0002358   0.0044675   0.0037482
   25  -0.0694487  -0.0009528   0.0731396  -0.0189215  -0.0055200   0.0289074
   26  -0.0018551  -0.0491649   0.0057407   0.0007639   0.0007289   0.0009142
   27   0.0689961   0.0063729  -0.2711081   0.0040371   0.0012145   0.0047407
            7           8           9          10          11          12
    1  -0.0076806   0.0094765  -0.0009658  -0.0013917  -0.0028091  -0.0016864
    2   0.0177482   0.0035285   0.0029234  -0.0010379  -0.0048792  -0.0010902
    3  -0.0058527   0.0072022   0.0081691  -0.0061566   0.0015367  -0.0028871
    4  -0.0365177   0.0027285  -0.0209324  -0.0118895   0.0255224   0.0033391
    5  -0.0002850   0.0131733   0.0267022   0.0274635  -0.0836993  -0.0054756
    6  -0.0132116  -0.0087784  -0.1181390   0.0021153   0.0125164   0.0534445
    7   0.0780790  -0.1528429  -0.0434542  -0.0465709   0.1500165   0.0646309
    8  -0.1528429   0.5006507   0.2577882   0.1555783  -0.4872040  -0.2687206
    9  -0.0434542   0.2577882   0.3907052   0.0702159  -0.2851974  -0.2738159
   10  -0.0465709   0.1555783   0.0702159   0.0654175  -0.1864474  -0.0735115
   11   0.1500165  -0.4872040  -0.2851974  -0.1864474   0.5740746   0.2704810
   12   0.0646309  -0.2687206  -0.2738159  -0.0735115   0.2704810   0.2244354
   13  -0.0030673   0.0120774   0.0044943   0.0016362  -0.0063729  -0.0041993
   14   0.0025058   0.0106871   0.0088515  -0.0017318  -0.0018810  -0.0042617
   15   0.0013485  -0.0013441   0.0053267  -0.0026279   0.0009742  -0.0022736
   16   0.0137624  -0.0200881  -0.0102354  -0.0053442   0.0156683   0.0096838
   17  -0.0155400  -0.0400604  -0.0094422   0.0062000   0.0019329   0.0087975
   18  -0.0042123   0.0136118  -0.0124816   0.0100575   0.0006263   0.0019871
   19  -0.0017498  -0.0026203   0.0015368  -0.0009236   0.0024688   0.0004188
   20   0.0000580  -0.0002074  -0.0007544  -0.0004484   0.0008562   0.0003178
   21   0.0002904   0.0002848   0.0006421  -0.0000589  -0.0001689  -0.0003630
   22   0.0018420  -0.0016427   0.0008086  -0.0010542   0.0016663   0.0004631
   23  -0.0004435  -0.0001340   0.0001877  -0.0001968   0.0005408  -0.0002784
   24  -0.0002732  -0.0007657  -0.0011074   0.0000238   0.0001618   0.0002706
   25   0.0019027  -0.0026669  -0.0014679   0.0001203   0.0002871   0.0008614
   26  -0.0012170  -0.0004339  -0.0010591   0.0006203   0.0002589   0.0002302
   27   0.0007341   0.0007218   0.0007007  -0.0000576  -0.0009300  -0.0007980
           13          14          15          16          17          18
    1   0.0043669   0.0058498  -0.0021290  -0.0229243  -0.0110994   0.0070243
    2   0.0029732   0.0010092   0.0026382  -0.0374886  -0.0062353  -0.0013060
    3   0.0037175   0.0084232   0.0039971   0.0026450  -0.0149836  -0.0048884
    4  -0.0178201  -0.0519479   0.0134417  -0.2329536  -0.1733652   0.0646892
    5  -0.0625686  -0.0563643   0.0166746  -0.1377539  -0.2586534   0.1013188
    6   0.0066864   0.0036120   0.0126674   0.0713255   0.1315322  -0.0820315
    7  -0.0030673   0.0025058   0.0013485   0.0137624  -0.0155400  -0.0042123
    8   0.0120774   0.0106871  -0.0013441  -0.0200881  -0.0400604   0.0136118
    9   0.0044943   0.0088515   0.0053267  -0.0102354  -0.0094422  -0.0124816
   10   0.0016362  -0.0017318  -0.0026279  -0.0053442   0.0062000   0.0100575
   11  -0.0063729  -0.0018810   0.0009742   0.0156683   0.0019329   0.0006263
   12  -0.0041993  -0.0042617  -0.0022736   0.0096838   0.0087975   0.0019871
   13   0.4089359   0.4070358  -0.1547430  -0.3878779  -0.3558125   0.1442573
   14   0.4070358   0.5016901  -0.1660177  -0.3533134  -0.4577587   0.1500994
   15  -0.1547430  -0.1660177   0.1168537   0.1414372   0.1488576  -0.1356580
   16  -0.3878779  -0.3533134   0.1414372   0.6324671   0.5366428  -0.2163150
   17  -0.3558125  -0.4577587   0.1488576   0.5366428   0.7628501  -0.2654999
   18   0.1442573   0.1500994  -0.1356580  -0.2163150  -0.2654999   0.2312743
   19  -0.0022992  -0.0022145   0.0009145   0.0057184   0.0031737  -0.0014205
   20   0.0005773   0.0003681  -0.0003729  -0.0008102   0.0006376   0.0004848
   21  -0.0000937  -0.0002464  -0.0002075   0.0001264   0.0003285   0.0010249
   22  -0.0010088  -0.0011597   0.0024748  -0.0039575   0.0003672  -0.0052014
   23   0.0009643   0.0010609  -0.0008013  -0.0008104  -0.0010269  -0.0001588
   24  -0.0008093  -0.0007872  -0.0001320   0.0026970   0.0016123   0.0002549
   25  -0.0028657  -0.0050241  -0.0001166   0.0011096   0.0094334   0.0011209
   26   0.0011260   0.0011886  -0.0006085  -0.0020466  -0.0016860   0.0008235
   27   0.0006897   0.0003270  -0.0005738  -0.0013644  -0.0012024   0.0005184
           19          20          21          22          23          24
    1  -0.0781635   0.0757999  -0.0380414  -0.0819697  -0.0731100  -0.0467265
    2   0.0734680  -0.2338571   0.0930494  -0.0743234  -0.2034597  -0.0974411
    3  -0.0367633   0.0933988  -0.0925167  -0.0487329  -0.0964804  -0.1103933
    4  -0.0171763  -0.0014939   0.0011993  -0.0186570  -0.0007181  -0.0002358
    5   0.0263065   0.0003894  -0.0026692  -0.0242871   0.0041497   0.0044675
    6  -0.0153218  -0.0010660  -0.0009293  -0.0104885   0.0038116   0.0037482
    7  -0.0017498   0.0000580   0.0002904   0.0018420  -0.0004435  -0.0002732
    8  -0.0026203  -0.0002074   0.0002848  -0.0016427  -0.0001340  -0.0007657
    9   0.0015368  -0.0007544   0.0006421   0.0008086   0.0001877  -0.0011074
   10  -0.0009236  -0.0004484  -0.0000589  -0.0010542  -0.0001968   0.0000238
   11   0.0024688   0.0008562  -0.0001689   0.0016663   0.0005408   0.0001618
   12   0.0004188   0.0003178  -0.0003630   0.0004631  -0.0002784   0.0002706
   13  -0.0022992   0.0005773  -0.0000937  -0.0010088   0.0009643  -0.0008093
   14  -0.0022145   0.0003681  -0.0002464  -0.0011597   0.0010609  -0.0007872
   15   0.0009145  -0.0003729  -0.0002075   0.0024748  -0.0008013  -0.0001320
   16   0.0057184  -0.0008102   0.0001264  -0.0039575  -0.0008104   0.0026970
   17   0.0031737   0.0006376   0.0003285   0.0003672  -0.0010269   0.0016123
   18  -0.0014205   0.0004848   0.0010249  -0.0052014  -0.0001588   0.0002549
   19   0.0868004  -0.0812555   0.0408180   0.0044328  -0.0100495   0.0064664
   20  -0.0812555   0.2499283  -0.1019928   0.0085129  -0.0187376   0.0110270
   21   0.0408180  -0.1019928   0.0962209   0.0068554  -0.0138065   0.0070992
   22   0.0044328   0.0085129   0.0068554   0.0961885   0.0830134   0.0500382
   23  -0.0100495  -0.0187376  -0.0138065   0.0830134   0.2163422   0.1063335
   24   0.0064664   0.0110270   0.0070992   0.0500382   0.1063335   0.1150980
   25   0.0033607  -0.0009401  -0.0110954   0.0041839   0.0013506  -0.0111806
   26  -0.0092772   0.0006225   0.0252212   0.0078531   0.0012645  -0.0246080
   27   0.0033511  -0.0010424  -0.0109707   0.0037827   0.0011927  -0.0148383
           25          26          27
    1  -0.0694487  -0.0018551   0.0689961
    2  -0.0009528  -0.0491649   0.0063729
    3   0.0731396   0.0057407  -0.2711081
    4  -0.0189215   0.0007639   0.0040371
    5  -0.0055200   0.0007289   0.0012145
    6   0.0289074   0.0009142   0.0047407
    7   0.0019027  -0.0012170   0.0007341
    8  -0.0026669  -0.0004339   0.0007218
    9  -0.0014679  -0.0010591   0.0007007
   10   0.0001203   0.0006203  -0.0000576
   11   0.0002871   0.0002589  -0.0009300
   12   0.0008614   0.0002302  -0.0007980
   13  -0.0028657   0.0011260   0.0006897
   14  -0.0050241   0.0011886   0.0003270
   15  -0.0001166  -0.0006085  -0.0005738
   16   0.0011096  -0.0020466  -0.0013644
   17   0.0094334  -0.0016860  -0.0012024
   18   0.0011209   0.0008235   0.0005184
   19   0.0033607  -0.0092772   0.0033511
   20  -0.0009401   0.0006225  -0.0010424
   21  -0.0110954   0.0252212  -0.0109707
   22   0.0041839   0.0078531   0.0037827
   23   0.0013506   0.0012645   0.0011927
   24  -0.0111806  -0.0246080  -0.0148383
   25   0.0805586   0.0040326  -0.0801688
   26   0.0040326   0.0472213  -0.0066542
   27  -0.0801688  -0.0066542   0.2923291
 Gradient time:  CPU 3717.32 s  wall 1074.82 s
 **********************************************************************
 **                                                                  **
 **                       VIBRATIONAL ANALYSIS                       **
 **                       --------------------                       **
 **                                                                  **
 **        VIBRATIONAL FREQUENCIES (CM**-1) AND NORMAL MODES         **
 **     FORCE CONSTANTS (mDYN/ANGSTROM) AND REDUCED MASSES (AMU)     **
 **                  INFRARED INTENSITIES (KM/MOL)                   **
 **                                                                  **
 **********************************************************************
 

 Mode:                 1                      2                      3
 Frequency:       -99.12                 217.37                 266.08
 Force Cnst:      0.0593                 0.1613                 0.2498
 Red. Mass:      10.2516                 5.7950                 5.9886
 IR Active:          YES                    YES                    YES
 IR Intens:        0.065                  6.321                  4.528
 Raman Active:       YES                    YES                    YES
               X      Y      Z        X      Y      Z        X      Y      Z
 C         -0.105  0.223  0.073   -0.069 -0.206 -0.070   -0.168 -0.043  0.095
 C         -0.119 -0.002  0.030   -0.058  0.167  0.369   -0.165 -0.072 -0.255
 N         -0.439 -0.178  0.064    0.036  0.090  0.068    0.149  0.238 -0.146
 O          0.513  0.208 -0.087   -0.062  0.203 -0.201    0.052  0.108  0.029
 N          0.045 -0.153 -0.014    0.149 -0.191 -0.094    0.202 -0.223  0.224
 N          0.022 -0.152 -0.059    0.010 -0.033  0.038   -0.091 -0.031 -0.011
 H         -0.011  0.315  0.180   -0.166 -0.276 -0.128   -0.271 -0.198 -0.131
 H         -0.231  0.327  0.004    0.287 -0.293 -0.230   -0.275 -0.216  0.467
 H         -0.066  0.143  0.085   -0.350 -0.342 -0.174    0.061  0.300  0.186
 TransDip   0.004 -0.003  0.007   -0.071 -0.034 -0.017   -0.050  0.046 -0.007

 Mode:                 4                      5                      6
 Frequency:       290.79                 309.93                 473.28
 Force Cnst:      0.0575                 0.1745                 1.1860
 Red. Mass:       1.1539                 3.0838                 8.9865
 IR Active:          YES                    YES                    YES
 IR Intens:        0.073                  0.990                 15.561
 Raman Active:       YES                    YES                    YES
               X      Y      Z        X      Y      Z        X      Y      Z
 C          0.002  0.050 -0.025   -0.085  0.196 -0.128   -0.233 -0.008 -0.008
 C          0.003 -0.005  0.051   -0.069 -0.051  0.098   -0.153  0.329 -0.001
 N          0.022 -0.037  0.012    0.245  0.015  0.012    0.111 -0.303  0.046
 O          0.013 -0.014 -0.036    0.054 -0.039  0.004    0.137 -0.274  0.109
 N         -0.038  0.009 -0.007   -0.087 -0.085  0.004    0.271  0.023 -0.061
 N         -0.003 -0.009  0.029   -0.069 -0.074  0.049   -0.153  0.344 -0.095
 H          0.059 -0.199 -0.573    0.227  0.426  0.069   -0.491 -0.130 -0.046
 H          0.038 -0.231  0.397   -0.215  0.466 -0.452    0.020 -0.135 -0.018
 H         -0.097  0.628 -0.041   -0.285  0.007 -0.206   -0.291 -0.093 -0.032
 TransDip   0.001 -0.007 -0.005   -0.031 -0.008 -0.004   -0.002 -0.122  0.032

 Mode:                 7                      8                      9
 Frequency:       587.09                 653.02                 760.14
 Force Cnst:      2.7770                 1.7160                 2.8963
 Red. Mass:      13.6742                 6.8299                 8.5077
 IR Active:          YES                    YES                    YES
 IR Intens:        7.981                  7.949                 24.511
 Raman Active:       YES                    YES                    YES
               X      Y      Z        X      Y      Z        X      Y      Z
 C         -0.006 -0.018 -0.034   -0.338 -0.015  0.017   -0.132 -0.012 -0.056
 C          0.004 -0.140 -0.239   -0.112  0.109 -0.014   -0.007 -0.113 -0.307
 N         -0.090  0.033 -0.094    0.046  0.042 -0.107    0.174 -0.210  0.526
 O          0.061  0.007  0.008    0.025 -0.064  0.057   -0.111  0.210 -0.191
 N          0.015 -0.196 -0.431   -0.062  0.202 -0.067    0.025  0.061 -0.024
 N          0.006  0.294  0.759    0.444 -0.222  0.098    0.079  0.011 -0.001
 H          0.004 -0.001 -0.006   -0.625 -0.130  0.025   -0.294  0.033  0.160
 H         -0.019  0.023 -0.081   -0.108 -0.155  0.051   -0.435  0.020  0.145
 H          0.017 -0.073 -0.027   -0.256 -0.133  0.039    0.291  0.010  0.094
 TransDip   0.008  0.087  0.023   -0.088  0.002 -0.021    0.060 -0.083  0.121

 Mode:                10                     11                     12
 Frequency:       945.53                1078.47                1133.32
 Force Cnst:      1.2850                 0.9101                 1.6730
 Red. Mass:       2.4396                 1.3281                 2.2108
 IR Active:          YES                    YES                    YES
 IR Intens:       37.186                  3.427                  1.356
 Raman Active:       YES                    YES                    YES
               X      Y      Z        X      Y      Z        X      Y      Z
 C          0.162  0.102 -0.070   -0.012 -0.064 -0.123    0.108 -0.141  0.065
 C         -0.121  0.184 -0.067   -0.002  0.032  0.083   -0.191  0.150 -0.084
 N          0.037 -0.032  0.013   -0.009  0.010 -0.023    0.017 -0.032  0.012
 O         -0.001 -0.001  0.010    0.010 -0.016  0.006   -0.004  0.013  0.009
 N         -0.095 -0.087  0.026    0.009  0.006 -0.009   -0.016  0.008 -0.005
 N         -0.013 -0.088  0.048   -0.002  0.005  0.013    0.047 -0.040  0.021
 H         -0.496 -0.106  0.080    0.025  0.141  0.259    0.794  0.084 -0.076
 H          0.485 -0.195  0.135   -0.609  0.008  0.265   -0.232  0.204 -0.201
 H          0.521 -0.213  0.050    0.626  0.194  0.113   -0.185  0.277 -0.028
 TransDip  -0.029 -0.187  0.050   -0.059 -0.006 -0.007   -0.007 -0.037 -0.003

 Mode:                13                     14                     15
 Frequency:      1387.83                1435.45                1485.84
 Force Cnst:      5.8954                 1.5841                 1.3569
 Red. Mass:       5.1950                 1.3049                 1.0431
 IR Active:          YES                    YES                    YES
 IR Intens:        3.273                  7.358                 11.583
 Raman Active:       YES                    YES                    YES
               X      Y      Z        X      Y      Z        X      Y      Z
 C         -0.092 -0.079  0.035   -0.150  0.007  0.012   -0.014 -0.026 -0.045
 C          0.403  0.301 -0.120    0.046  0.033 -0.014   -0.006 -0.011 -0.012
 N         -0.002 -0.040 -0.020   -0.000  0.001  0.006   -0.001  0.002  0.004
 O         -0.009  0.028  0.020    0.001 -0.004 -0.003    0.001 -0.002 -0.002
 N         -0.177 -0.204  0.069   -0.013 -0.017  0.006    0.002  0.003 -0.000
 N         -0.006 -0.021  0.011   -0.008 -0.006  0.002    0.000  0.000 -0.001
 H         -0.222 -0.052  0.134    0.562  0.180 -0.212    0.069  0.337  0.616
 H         -0.389  0.233 -0.206    0.444 -0.192 -0.129    0.380 -0.329  0.160
 H         -0.378  0.412 -0.056    0.520 -0.107  0.219   -0.244  0.390 -0.095
 TransDip   0.034 -0.044  0.017   -0.029 -0.079  0.020   -0.001  0.065  0.087

 Mode:                16                     17                     18
 Frequency:      1515.67                1620.20                1990.26
 Force Cnst:      1.4436                21.8481                31.1836
 Red. Mass:       1.0665                14.1262                13.3616
 IR Active:          YES                    YES                    YES
 IR Intens:       16.765                228.657                553.133
 Raman Active:       YES                    YES                    YES
               X      Y      Z        X      Y      Z        X      Y      Z
 C          0.005  0.041 -0.027   -0.022  0.005 -0.013    0.009 -0.004 -0.017
 C          0.023  0.035 -0.017    0.015 -0.098  0.081   -0.197 -0.181  0.109
 N          0.003 -0.011 -0.006    0.160 -0.559 -0.412    0.011 -0.053 -0.034
 O         -0.003  0.009  0.006   -0.163  0.531  0.318   -0.010  0.038  0.025
 N         -0.013 -0.014  0.005    0.061  0.069 -0.030   -0.343 -0.378  0.148
 N          0.003 -0.002  0.002   -0.045 -0.042  0.021    0.486  0.552 -0.224
 H          0.314  0.148 -0.038   -0.030  0.015  0.019    0.050  0.019 -0.011
 H         -0.214 -0.252  0.591    0.117 -0.027 -0.082    0.065 -0.061 -0.008
 H         -0.283 -0.565 -0.126    0.136  0.087  0.047    0.146 -0.029  0.059
 TransDip   0.037 -0.114  0.053    0.073 -0.471  0.087    0.442  0.584 -0.178

 Mode:                19                     20                     21
 Frequency:      2976.25                3035.61                3086.35
 Force Cnst:      5.4279                 5.9703                 6.1711
 Red. Mass:       1.0400                 1.0997                 1.0996
 IR Active:          YES                    YES                    YES
 IR Intens:       26.373                 10.244                  4.075
 Raman Active:       YES                    YES                    YES
               X      Y      Z        X      Y      Z        X      Y      Z
 C          0.046  0.009 -0.027   -0.015 -0.039 -0.081    0.012 -0.084  0.034
 C          0.001  0.000 -0.000    0.000  0.000  0.000   -0.001 -0.001  0.001
 N         -0.000  0.001  0.000    0.000 -0.000  0.000   -0.000 -0.000 -0.000
 O          0.000 -0.000 -0.000    0.000  0.000 -0.000   -0.000  0.000  0.000
 N          0.001  0.001 -0.000    0.000  0.000 -0.000    0.000  0.000 -0.000
 N         -0.001 -0.001  0.001    0.000 -0.000 -0.000    0.000  0.000 -0.000
 H         -0.118  0.304 -0.156    0.052 -0.142  0.050   -0.318  0.773 -0.387
 H         -0.190 -0.393 -0.259    0.312  0.629  0.380    0.128  0.242  0.169
 H         -0.242 -0.017  0.742   -0.187 -0.027  0.542    0.065 -0.011 -0.190
 TransDip   0.154  0.030 -0.051   -0.029 -0.040 -0.090   -0.005 -0.059  0.026

 STANDARD THERMODYNAMIC QUANTITIES AT   298.15 K  AND     1.00 ATM

   This Molecule has  1 Imaginary Frequencies
   Zero point vibrational energy:       36.095 kcal/mol

   Atom    1 Element C  Has Mass   12.00000
   Atom    2 Element C  Has Mass   12.00000
   Atom    3 Element N  Has Mass   14.00307
   Atom    4 Element O  Has Mass   15.99491
   Atom    5 Element N  Has Mass   14.00307
   Atom    6 Element N  Has Mass   14.00307
   Atom    7 Element H  Has Mass    1.00783
   Atom    8 Element H  Has Mass    1.00783
   Atom    9 Element H  Has Mass    1.00783
   Molecular Mass:    85.027610 amu
   Principal axes and moments of inertia in amu*Bohr^2:
                             1           2           3
    Eigenvalues --      327.68306   606.50744   882.01276
          X               0.14594     0.98809     0.04884
          Y               0.93873    -0.15389     0.30840
          Z              -0.31224    -0.00084     0.95000
   Rotational Symmetry Number is   1
   The Molecule is an Asymmetric Top
   Translational Enthalpy:        0.889 kcal/mol
   Rotational Enthalpy:           0.889 kcal/mol
   Vibrational Enthalpy:         37.723 kcal/mol
   gas constant (RT):             0.592 kcal/mol
   Translational Entropy:        39.234  cal/mol.K
   Rotational Entropy:           26.663  cal/mol.K
   Vibrational Entropy:           8.550  cal/mol.K

   Total Enthalpy:               40.093 kcal/mol
   Total Entropy:                74.447  cal/mol.K
Archival summary:
1\1\nid00492\FREQ\ProcedureUnspecified\BasisUnspecified\1323\cgrambow\TueFeb1223:48:582019TueFeb1223:48:582019\0\\#,FREQ,ProcedureUnspecified,BasisUnspecified,\\0,1\N\N,1,1.16196\C,1,1.28623,2,175.334\C,3,1.49934,1,125.704,2,-163.715,0\H,4,1.09722,3,110.067,1,10.8819,0\H,4,1.10041,3,111.193,1,130.763,0\H,4,1.1031,3,111.401,1,-108.831,0\N,3,1.5698,1,115.754,2,41.8631,0\O,8,1.1974,3,112.782,1,-103.441,0\\\@

 Total job time:  1111.82s(wall), 4232.80s(cpu) 
 Tue Feb 12 23:48:58 2019

        *************************************************************
        *                                                           *
        *  Thank you very much for using Q-Chem.  Have a nice day.  *
        *                                                           *
        *************************************************************



Running Job 2 of 3 ts_optfreq1122.in
qchem ts_optfreq1122.in_10229.1 /tmp/qchem10229/ 1
/global/common/cori/software/qchem/5.1/exe/qcprog.exe ts_optfreq1122.in_10229.1 /tmp/qchem10229/
Check license passed

                  Welcome to Q-Chem
     A Quantum Leap Into The Future Of Chemistry


 Q-Chem 5.1, Q-Chem, Inc., Pleasanton, CA (2018)

 Yihan Shao,  Zhengting Gan,  E. Epifanovsky,  A. T. B. Gilbert,  M. Wormit,  
 J. Kussmann,  A. W. Lange,  A. Behn,  Jia Deng,  Xintian Feng,  D. Ghosh,  
 M. Goldey,  P. R. Horn,  L. D. Jacobson,  I. Kaliman,  T. Kus,  A. Landau,  
 Jie Liu,  E. I. Proynov,  R. M. Richard,  R. P. Steele,  E. J. Sundstrom,  
 H. L. Woodcock III,  P. M. Zimmerman,  D. Zuev,  B. Albrecht,  E. Alguire,  
 S. A. Baeppler,  D. Barton,  Z. Benda,  Y. A. Bernard,  E. J. Berquist,  
 K. B. Bravaya,  H. Burton,  D. Casanova,  Chun-Min Chang,  Yunqing Chen,  
 A. Chien,  K. D. Closser,  M. P. Coons,  S. Coriani,  S. Dasgupta,  
 A. L. Dempwolff,  M. Diedenhofen,  Hainam Do,  R. G. Edgar,  Po-Tung Fang,  
 S. Faraji,  S. Fatehi,  Qingguo Feng,  K. D. Fenk,  J. Fosso-Tande,  
 Qinghui Ge,  A. Ghysels,  G. Gidofalvi,  J. Gomes,  J. Gonthier,  A. Gunina,  
 D. Hait,  M. W. D. Hanson-Heine,  P. H. P. Harbach,  A. W. Hauser,  
 J. E. Herr,  E. G. Hohenstein,  Z. C. Holden,  Kerwin Hui,  B. C. Huynh,  
 T.-C. Jagau,  Hyunjun Ji,  B. Kaduk,  K. Khistyaev,  Jaehoon Kim,  
 P. Klunzinger,  K. Koh,  D. Kosenkov,  L. Koulias,  T. Kowalczyk,  
 C. M. Krauter,  A. Kunitsa,  Ka Un Lao,  A. Laurent,  K. V. Lawler,  
 Joonho Lee,  D. Lefrancois,  S. Lehtola,  D. S. Levine,  Yi-Pei Li,  
 You-Sheng Lin,  Fenglai Liu,  E. Livshits,  A. Luenser,  P. Manohar,  
 E. Mansoor,  S. F. Manzer,  Shan-Ping Mao,  Yuezhi Mao,  N. Mardirossian,  
 A. V. Marenich,  T. Markovich,  L. A. Martinez-Martinez,  S. A. Maurer,  
 N. J. Mayhall,  S. C. McKenzie,  J.-M. Mewes,  A. F. Morrison,  
 J. W. Mullinax,  K. Nanda,  T. S. Nguyen-Beck,  R. Olivares-Amaya,  
 J. A. Parkhill,  T. M. Perrine,  F. Plasser,  P. Pokhilko,  S. Prager,  
 A. Prociuk,  E. Ramos,  D. R. Rehn,  F. Rob,  M. Schneider,  N. Sergueev,  
 S. M. Sharada,  S. Sharma,  D. W. Small,  T. Stauch,  T. Stein,  
 Yu-Chuan Su,  A. J. W. Thom,  A. Tkatchenko,  T. Tsuchimochi,  N. M. Tubman,  
 L. Vogt,  M. L. Vidal,  O. Vydrov,  M. A. Watson,  J. Wenzel,  
 M. de Wergifosse,  T. A. Wesolowski,  A. White,  J. Witte,  A. Yamada,  
 Jun Yang,  K. Yao,  S. Yeganeh,  S. R. Yost,  Zhi-Qiang You,  A. Zech,  
 Igor Ying Zhang,  Xing Zhang,  Yan Zhao,  Ying Zhu,  B. R. Brooks,  
 G. K. L. Chan,  C. J. Cramer,  M. S. Gordon,  W. J. Hehre,  A. Klamt,  
 M. W. Schmidt,  C. D. Sherrill,  D. G. Truhlar,  A. Aspuru-Guzik,  R. Baer,  
 A. T. Bell,  N. A. Besley,  Jeng-Da Chai,  R. A. DiStasio Jr.,  A. Dreuw,  
 B. D. Dunietz,  T. R. Furlani,  Chao-Ping Hsu,  Yousung Jung,  Jing Kong,  
 D. S. Lambrecht,  WanZhen Liang,  C. Ochsenfeld,  V. A. Rassolov,  
 L. V. Slipchenko,  J. E. Subotnik,  T. Van Voorhis,  J. M. Herbert,  
 A. I. Krylov,  P. M. W. Gill,  M. Head-Gordon

 Contributors to earlier versions of Q-Chem not listed above: 
 R. D. Adamson,  B. Austin,  J. Baker,  G. J. O. Beran,  K. Brandhorst,  
 S. T. Brown,  E. F. C. Byrd,  A. K. Chakraborty,  C.-L. Cheng,  
 Siu Hung Chien,  D. M. Chipman,  D. L. Crittenden,  H. Dachsel,  
 R. J. Doerksen,  A. D. Dutoi,  L. Fusti-Molnar,  W. A. Goddard III,  
 A. Golubeva-Zadorozhnaya,  S. R. Gwaltney,  G. Hawkins,  A. Heyden,  
 S. Hirata,  G. Kedziora,  F. J. Keil,  C. Kelley,  Jihan Kim,  R. A. King,  
 R. Z. Khaliullin,  P. P. Korambath,  W. Kurlancheek,  A. M. Lee,  M. S. Lee,  
 S. V. Levchenko,  Ching Yeh Lin,  D. Liotard,  R. C. Lochan,  I. Lotan,  
 P. E. Maslen,  N. Nair,  D. P. O'Neill,  D. Neuhauser,  E. Neuscamman,  
 C. M. Oana,  R. Olson,  B. Peters,  R. Peverati,  P. A. Pieniazek,  
 Y. M. Rhee,  J. Ritchie,  M. A. Rohrdanz,  E. Rosta,  N. J. Russ,  
 H. F. Schaefer III,  N. E. Schultz,  N. Shenvi,  A. C. Simmonett,  A. Sodt,  
 D. Stuck,  K. S. Thanthiriwatte,  V. Vanovschi,  Tao Wang,  A. Warshel,  
 C. F. Williams,  Q. Wu,  X. Xu,  W. Zhang

 Please cite Q-Chem as follows:
 Y. Shao et al., Mol. Phys. 113, 184-215 (2015)
 DOI: 10.1080/00268976.2014.952696

 Q-Chem 5.1.0 for Intel X86 EM64T Linux

 Parts of Q-Chem use Armadillo 8.300.2 (Tropical Shenanigans).
 http://arma.sourceforge.net/

 Q-Chem begins on Tue Feb 12 23:48:58 2019  

Host: cori07
0

     Scratch files written to /tmp/qchem10229//
 Jun2518 |scratch|qcdevops|jenkins|workspace|build_RNUM -1
Processing $rem in /global/common/cori/software/qchem/5.1/config/preferences.
 MEM_TOTAL  96000 
The previous job contains 0 fragments, simply inherited here

Checking the input file for inconsistencies... 	...done.

--------------------------------------------------------------
User input:
--------------------------------------------------------------

$molecule
read
$end

$rem
JOBTYPE                   TS
METHOD                    wB97X-D3
BASIS                     def2-TZVP
UNRESTRICTED              TRUE
SCF_GUESS                 READ
GEOM_OPT_HESSIAN          READ
SCF_ALGORITHM             DIIS
MAX_SCF_CYCLES            100
SCF_CONVERGENCE           8
SYM_IGNORE                TRUE
SYMMETRY                  FALSE
GEOM_OPT_MAX_CYCLES       100
GEOM_OPT_TOL_GRADIENT     100
GEOM_OPT_TOL_DISPLACEMENT 400
GEOM_OPT_TOL_ENERGY       33
WAVEFUNCTION_ANALYSIS     FALSE
$end

--------------------------------------------------------------
 Adding empirical dispersion correction 
 ----------------------------------------------------------------
 Doing -D3(0) with
 s6  =   1.00000
 s8  =   1.00000
 rs6 =   1.28100
 rs8 =   1.09400
 -D3 energy without 3body term =     -0.0018292131 hartrees
 ----------------------------------------------------------------
             Standard Nuclear Orientation (Angstroms)
    I     Atom           X                Y                Z
 ----------------------------------------------------------------
    1      C      -1.1282578210     0.0517219139    -0.0028455136
    2      C       0.3694145378     0.0228747461    -0.0673094051
    3      N       1.0267506369    -1.0593300013     0.8606001068
    4      O       1.3306695013    -2.0548258570     0.2686703613
    5      N       1.8786112458     1.8378123555    -0.7092308553
    6      N       1.1256628777     1.0093350454    -0.3980358893
    7      H      -1.5071669131     0.9733428585    -0.4621182047
    8      H      -1.5660338113    -0.8041829161    -0.5382678693
    9      H      -1.4869792541     0.0189938551     1.0397872694
 ----------------------------------------------------------------
 Nuclear Repulsion Energy =   205.6105594672 hartrees
 There are       22 alpha and       22 beta electrons
 Requested basis set is def2-TZVP
 There are 78 shells and 204 basis functions

 Total QAlloc Memory Limit  96000 MB
 Mega-Array Size       188 MB
 MEM_STATIC part       192 MB
 A cutoff of  1.0D-11 yielded   2850 shell pairs
 There are     20062 function pairs (     26497 Cartesian)
 
 -------------------------------------------------------
 OpenMP Integral Computing Module                       
 Release: version 1.0, May 2013, Q-Chem Inc. Pittsburgh 
 -------------------------------------------------------
 Integral Job Info:
 Integral job number is                      11
 Integral operator is                         1
 short-range coefficients              19572800
 long-range coefficients              100000000
 Omega coefficients                         250
 if combine SR and LR in K                    1
 Integral screening is                        0
 Integral computing path is                   2
 max size of driver memory is            800000
 size of driver memory is                776718
 size of scratch memory is              4473992
 max col of scratch BK array              10000
 max len of scratch array in speh3          662
 max len of scratch index in speh4           32
 max int batch size is                      520
 min int batch size is                       52
 fixed nKL is                                52
 max L of basis functions is                  3
 order of int derivative is                   0
 number of shells is                         78
 number of basis is                         234
 number of cartesian basis is               234
 number of contracted shell pairs          2850
 number of primitive shell pairs           6825
 maxK2 (contraction) of shell pair           36
 max number of K2 of shell pair               1
 max number of CS2 of shell pair            372
 max number of PS2 of shell pair            888
 mem total for path MDJ                  585496
 -------------------------------------------------------
 Smallest overlap matrix eigenvalue = 2.09E-04

 Scale SEOQF with 1.000000e-01/1.000000e-01/1.000000e+00

 Standard Electronic Orientation quadrupole field applied
 Nucleus-field energy     =    -0.0000000051 hartrees

 -----------------------------------------------------------------------
  General SCF calculation program by
  Eric Jon Sundstrom, Paul Horn, Yuezhi Mao, Dmitri Zuev, Alec White,
  David Stuck, Shaama M.S., Shane Yost, Joonho Lee, David Small,
  Daniel Levine, Susi Lehtola, Hugh Burton, Evgeny Epifanovsky
 -----------------------------------------------------------------------
 Exchange:     0.1957 Hartree-Fock + 1.0000 wB97X-D3 + LR-HF
 Correlation:  1.0000 wB97X-D3
 Using SG-2 standard quadrature grid
 Dispersion:   Grimme D3
 using 16 threads for integral computing
 -------------------------------------------------------
 OpenMP Integral computing Module                
 Release: version 1.0, May 2013, Q-Chem Inc. Pittsburgh 
 -------------------------------------------------------
 using 16 threads for integral computing
 -------------------------------------------------------
 OpenMP Integral computing Module                
 Release: version 1.0, May 2013, Q-Chem Inc. Pittsburgh 
 -------------------------------------------------------
 -------------------------------------------------------
 OpenMP BLAS3 based DFT computing Module                
 Release: version 1.0, May 2013, Q-Chem Inc. Pittsburgh 
 -------------------------------------------------------
 A unrestricted SCF calculation will be
 performed using DIIS
 SCF converges when DIIS error is below 1.0e-08
 ---------------------------------------
  Cycle       Energy         DIIS error
 ---------------------------------------
    1    -317.3432181585      4.03e-09  
    2    -317.3432181585      2.56e-09  Convergence criterion met
 ---------------------------------------
 SCF time:   CPU 59.25s  wall 4.00s 
<S^2> =          0.000000000
 SCF   energy in the final basis set =     -317.3432181585
 Total energy in the final basis set =     -317.3432181585
 No wavefunction analysis requested
 Calculating analytic gradient of the SCF energy
 Gradient of SCF Energy
            1           2           3           4           5           6
    1   0.0019412  -0.0086816  -0.0025818   0.0088071   0.0369319  -0.0288093
    2  -0.0017508   0.0054387   0.0102296  -0.0277337   0.0390614  -0.0247683
    3   0.0027800  -0.0119644   0.0293832  -0.0153044  -0.0141851   0.0087167
            7           8           9
    1  -0.0015127  -0.0028043  -0.0032904
    2   0.0043008  -0.0043900  -0.0003877
    3  -0.0019660  -0.0025433   0.0050833
 Max gradient component =       3.906E-02
 RMS gradient           =       1.613E-02
 Gradient time:  CPU 76.02 s  wall 5.57 s
 Geometry Optimization Parameters
   NAtoms,    NIC,     NZ,  NCons,   NDum,   NFix, NCnnct, MaxDiis
        9      47       0       0       0       0       0       0

 Cartesian Hessian read from HESS file


** GEOMETRY OPTIMIZATION IN DELOCALIZED INTERNAL COORDINATES **
   Searching for a Transition State

   Optimization Cycle:   1

                       Coordinates (Angstroms)
     ATOM                X               Y               Z
      1  C        -1.1282578210    0.0517219139   -0.0028455136
      2  C         0.3694145378    0.0228747461   -0.0673094051
      3  N         1.0267506369   -1.0593300013    0.8606001068
      4  O         1.3306695013   -2.0548258570    0.2686703613
      5  N         1.8786112458    1.8378123555   -0.7092308553
      6  N         1.1256628777    1.0093350454   -0.3980358893
      7  H        -1.5071669131    0.9733428585   -0.4621182047
      8  H        -1.5660338113   -0.8041829161   -0.5382678693
      9  H        -1.4869792541    0.0189938551    1.0397872694
   Point Group: c1    Number of degrees of freedom:    21


   Energy is   -317.343218158


 Attempting to Generate Delocalized Internal Coordinates

 Transforming Cartesian Hessian to Internal Coordinates
 Hessian Transformation does not Include Derivative of B-matrix

 21 Hessian modes will be used to form the next step
  Hessian Eigenvalues:
    -0.003170    0.005828    0.015230    0.060316    0.061074    0.083896
     0.106764    0.116905    0.127017    0.139097    0.161750    0.164767
     0.191197    0.311533    0.319965    0.332799    0.337884    0.406786
     0.577241    0.806968    0.951084

 Transition State Search - Taking P-RFO Step
 Searching for Lamda that Maximizes Along the Lowest mode
 Value Taken    Lamda =   0.00019027
 Searching for Lamda that Minimizes Along All other modes
 Value Taken    Lamda =  -0.00887731
 Calculated Step too Large.  Step scaled by  0.962639
 Step Taken.  Stepsize is  0.300000

                             Maximum     Tolerance    Cnvgd?
         Gradient           0.030411      0.000100      NO
         Displacement       0.145084      0.000400      NO
         Energy change     *********      0.000000      NO


 New Cartesian Coordinates Obtained by Inverse Iteration

 Displacement from previous Coordinates is:  0.337348
 Adding empirical dispersion correction 
 ----------------------------------------------------------------
 Doing -D3(0) with
 s6  =   1.00000
 s8  =   1.00000
 rs6 =   1.28100
 rs8 =   1.09400
 -D3 energy without 3body term =     -0.0018237508 hartrees
 ----------------------------------------------------------------
             Standard Nuclear Orientation (Angstroms)
    I     Atom           X                Y                Z
 ----------------------------------------------------------------
    1      C      -1.1323293822     0.0606594708     0.0019350396
    2      C       0.3573525419    -0.0009695085    -0.0227528882
    3      N       0.9861853130    -1.0382267811     0.8405008334
    4      O       1.4098732585    -1.9672264658     0.2381742318
    5      N       1.8497750934     1.7630926961    -0.7059653060
    6      N       1.1269178291     0.9498456917    -0.3903217078
    7      H      -1.4844890347     0.9835987687    -0.4571458927
    8      H      -1.5669233757    -0.7801517688    -0.5439687368
    9      H      -1.5036912433     0.0251198971     1.0307944269
 ----------------------------------------------------------------
 Nuclear Repulsion Energy =   209.7524719638 hartrees
 There are       22 alpha and       22 beta electrons
 Applying Cartesian multipole field
    Component          Value
    ---------          -----
     (2,0,0)        1.00000E-11
     (0,2,0)        2.00000E-11
     (0,0,2)       -3.00000E-10
 Nucleus-field energy     =    -0.0000000049 hartrees
 Requested basis set is def2-TZVP
 There are 78 shells and 204 basis functions
 A cutoff of  1.0D-11 yielded   2858 shell pairs
 There are     20112 function pairs (     26560 Cartesian)
 Smallest overlap matrix eigenvalue = 1.64E-04

 -----------------------------------------------------------------------
  General SCF calculation program by
  Eric Jon Sundstrom, Paul Horn, Yuezhi Mao, Dmitri Zuev, Alec White,
  David Stuck, Shaama M.S., Shane Yost, Joonho Lee, David Small,
  Daniel Levine, Susi Lehtola, Hugh Burton, Evgeny Epifanovsky
 -----------------------------------------------------------------------
 Exchange:     0.1957 Hartree-Fock + 1.0000 wB97X-D3 + LR-HF
 Correlation:  1.0000 wB97X-D3
 Using SG-2 standard quadrature grid
 Dispersion:   Grimme D3
 using 16 threads for integral computing
 -------------------------------------------------------
 OpenMP Integral computing Module                
 Release: version 1.0, May 2013, Q-Chem Inc. Pittsburgh 
 -------------------------------------------------------
 using 16 threads for integral computing
 -------------------------------------------------------
 OpenMP Integral computing Module                
 Release: version 1.0, May 2013, Q-Chem Inc. Pittsburgh 
 -------------------------------------------------------
 -------------------------------------------------------
 OpenMP BLAS3 based DFT computing Module                
 Release: version 1.0, May 2013, Q-Chem Inc. Pittsburgh 
 -------------------------------------------------------
 A unrestricted SCF calculation will be
 performed using DIIS
 SCF converges when DIIS error is below 1.0e-08
 ---------------------------------------
  Cycle       Energy         DIIS error
 ---------------------------------------
    1    -317.3303570705      7.67e-04  
    2    -317.3457456123      1.94e-04  
    3    -317.3469901924      1.95e-04  
    4    -317.3476539391      6.88e-05  
    5    -317.3478663984      2.58e-05  
    6    -317.3479434443      1.73e-05  
    7    -317.3479771940      1.10e-05  
    8    -317.3480032596      5.15e-06  
    9    -317.3480087286      2.93e-06  
   10    -317.3480104851      1.25e-06  
   11    -317.3480107541      7.10e-07  
   12    -317.3480108448      3.49e-07  
   13    -317.3480108775      9.90e-08  
   14    -317.3480108797      4.51e-08  
   15    -317.3480108800      2.56e-08  
   16    -317.3480108802      1.22e-08  
   17    -317.3480108802      4.82e-09  Convergence criterion met
 ---------------------------------------
 SCF time:   CPU 505.01s  wall 35.00s 
<S^2> =          0.000000000
 SCF   energy in the final basis set =     -317.3480108802
 Total energy in the final basis set =     -317.3480108802
 No wavefunction analysis requested
 Calculating analytic gradient of the SCF energy
 Gradient of SCF Energy
            1           2           3           4           5           6
    1   0.0004407   0.0019547   0.0039083  -0.0047569  -0.0014638   0.0004193
    2  -0.0007610  -0.0024485   0.0046392  -0.0011771  -0.0022498   0.0027357
    3   0.0001723  -0.0016579  -0.0012625   0.0003280   0.0014158   0.0012846
            7           8           9
    1  -0.0001858  -0.0001110  -0.0002054
    2  -0.0000947  -0.0004307  -0.0002131
    3  -0.0002081  -0.0001951   0.0001230
 Max gradient component =       4.757E-03
 RMS gradient           =       1.874E-03
 Gradient time:  CPU 80.19 s  wall 5.70 s
 Geometry Optimization Parameters
   NAtoms,    NIC,     NZ,  NCons,   NDum,   NFix, NCnnct, MaxDiis
        9      47       0       0       0       0       0       0

 Cartesian Hessian Update
 Hessian Updated using Powell/Murtagh-Sargent Update
  Mixing factors:     0.975036 Powell
                      0.024964 Murtagh-Sargent


** GEOMETRY OPTIMIZATION IN DELOCALIZED INTERNAL COORDINATES **
   Searching for a Transition State

   Optimization Cycle:   2

                       Coordinates (Angstroms)
     ATOM                X               Y               Z
      1  C        -1.1323293822    0.0606594708    0.0019350396
      2  C         0.3573525419   -0.0009695085   -0.0227528882
      3  N         0.9861853130   -1.0382267811    0.8405008334
      4  O         1.4098732585   -1.9672264658    0.2381742318
      5  N         1.8497750934    1.7630926961   -0.7059653060
      6  N         1.1269178291    0.9498456917   -0.3903217078
      7  H        -1.4844890347    0.9835987687   -0.4571458927
      8  H        -1.5669233757   -0.7801517688   -0.5439687368
      9  H        -1.5036912433    0.0251198971    1.0307944269
   Point Group: c1    Number of degrees of freedom:    21


   Energy is   -317.348010880

 Hessian Updated using Powell/Murtagh-Sargent Update
  Mixing factors:     0.991030 Powell
                      0.008970 Murtagh-Sargent

 21 Hessian modes will be used to form the next step
  Hessian Eigenvalues:
    -0.037472    0.006812    0.016506    0.060308    0.061241    0.083842
     0.114551    0.121645    0.127279    0.139654    0.161620    0.164575
     0.193005    0.311531    0.319973    0.332771    0.338049    0.406593
     0.577360    0.809552    0.958458

 Transition State Search - Taking P-RFO Step
 Searching for Lamda that Maximizes Along the Lowest mode
 Value Taken    Lamda =   0.00126575
 Searching for Lamda that Minimizes Along All other modes
 Value Taken    Lamda =  -0.00026680
 Step Taken.  Stepsize is  0.229308

                             Maximum     Tolerance    Cnvgd?
         Gradient           0.004302      0.000100      NO
         Displacement       0.102652      0.000400      NO
         Energy change     -0.004793      0.000000      NO


 New Cartesian Coordinates Obtained by Inverse Iteration

 Displacement from previous Coordinates is:  0.225070
 Adding empirical dispersion correction 
 ----------------------------------------------------------------
 Doing -D3(0) with
 s6  =   1.00000
 s8  =   1.00000
 rs6 =   1.28100
 rs8 =   1.09400
 -D3 energy without 3body term =     -0.0018340434 hartrees
 ----------------------------------------------------------------
             Standard Nuclear Orientation (Angstroms)
    I     Atom           X                Y                Z
 ----------------------------------------------------------------
    1      C      -1.1270237720     0.0557645582     0.0001710973
    2      C       0.3634099752    -0.0035148710    -0.0356344920
    3      N       1.0184412134    -1.0375327516     0.8237424141
    4      O       1.3622770935    -1.9996449378     0.2240671469
    5      N       1.8412765474     1.7886717776    -0.6802997450
    6      N       1.1223201097     0.9711445377    -0.3690676561
    7      H      -1.4803084068     0.9576796178    -0.4980384295
    8      H      -1.5645633920    -0.8072282581    -0.5051092077
    9      H      -1.4931583685     0.0704023274     1.0314188721
 ----------------------------------------------------------------
 Nuclear Repulsion Energy =   209.5088216363 hartrees
 There are       22 alpha and       22 beta electrons
 Applying Cartesian multipole field
    Component          Value
    ---------          -----
     (2,0,0)        1.00000E-11
     (0,2,0)        2.00000E-11
     (0,0,2)       -3.00000E-10
 Nucleus-field energy     =    -0.0000000042 hartrees
 Requested basis set is def2-TZVP
 There are 78 shells and 204 basis functions
 A cutoff of  1.0D-11 yielded   2863 shell pairs
 There are     20179 function pairs (     26647 Cartesian)
 Smallest overlap matrix eigenvalue = 1.64E-04

 -----------------------------------------------------------------------
  General SCF calculation program by
  Eric Jon Sundstrom, Paul Horn, Yuezhi Mao, Dmitri Zuev, Alec White,
  David Stuck, Shaama M.S., Shane Yost, Joonho Lee, David Small,
  Daniel Levine, Susi Lehtola, Hugh Burton, Evgeny Epifanovsky
 -----------------------------------------------------------------------
 Exchange:     0.1957 Hartree-Fock + 1.0000 wB97X-D3 + LR-HF
 Correlation:  1.0000 wB97X-D3
 Using SG-2 standard quadrature grid
 Dispersion:   Grimme D3
 using 16 threads for integral computing
 -------------------------------------------------------
 OpenMP Integral computing Module                
 Release: version 1.0, May 2013, Q-Chem Inc. Pittsburgh 
 -------------------------------------------------------
 using 16 threads for integral computing
 -------------------------------------------------------
 OpenMP Integral computing Module                
 Release: version 1.0, May 2013, Q-Chem Inc. Pittsburgh 
 -------------------------------------------------------
 -------------------------------------------------------
 OpenMP BLAS3 based DFT computing Module                
 Release: version 1.0, May 2013, Q-Chem Inc. Pittsburgh 
 -------------------------------------------------------
 A unrestricted SCF calculation will be
 performed using DIIS
 SCF converges when DIIS error is below 1.0e-08
 ---------------------------------------
  Cycle       Energy         DIIS error
 ---------------------------------------
    1    -317.3405967336      4.54e-04  
    2    -317.3463406025      9.90e-05  
    3    -317.3470753059      3.58e-05  
    4    -317.3472371000      3.56e-05  
    5    -317.3473064970      1.70e-05  
    6    -317.3473572558      1.14e-05  
    7    -317.3473858449      5.06e-06  
    8    -317.3473915433      2.80e-06  
    9    -317.3473930778      1.48e-06  
   10    -317.3473933702      8.77e-07  
   11    -317.3473934451      4.50e-07  
   12    -317.3473934850      1.48e-07  
   13    -317.3473934899      4.40e-08  
   14    -317.3473934903      1.95e-08  
   15    -317.3473934904      1.22e-08  
   16    -317.3473934904      5.37e-09  Convergence criterion met
 ---------------------------------------
 SCF time:   CPU 474.83s  wall 34.00s 
<S^2> =          0.000000000
 SCF   energy in the final basis set =     -317.3473934904
 Total energy in the final basis set =     -317.3473934904
 No wavefunction analysis requested
 Calculating analytic gradient of the SCF energy
 Gradient of SCF Energy
            1           2           3           4           5           6
    1   0.0001347   0.0007445  -0.0000252  -0.0007961  -0.0018642   0.0019273
    2  -0.0002602  -0.0025338   0.0020946  -0.0000677  -0.0033470   0.0041424
    3   0.0002105  -0.0008046  -0.0010814   0.0002610   0.0009618   0.0002422
            7           8           9
    1  -0.0001700   0.0000168   0.0000321
    2   0.0000260  -0.0000786   0.0000244
    3   0.0000548   0.0000685   0.0000872
 Max gradient component =       4.142E-03
 RMS gradient           =       1.369E-03
 Gradient time:  CPU 77.76 s  wall 5.44 s
 Geometry Optimization Parameters
   NAtoms,    NIC,     NZ,  NCons,   NDum,   NFix, NCnnct, MaxDiis
        9      47       0       0       0       0       0       0

 Cartesian Hessian Update
 Hessian Updated using Powell/Murtagh-Sargent Update
  Mixing factors:     0.987262 Powell
                      0.012738 Murtagh-Sargent


** GEOMETRY OPTIMIZATION IN DELOCALIZED INTERNAL COORDINATES **
   Searching for a Transition State

   Optimization Cycle:   3

                       Coordinates (Angstroms)
     ATOM                X               Y               Z
      1  C        -1.1270237720    0.0557645582    0.0001710973
      2  C         0.3634099752   -0.0035148710   -0.0356344920
      3  N         1.0184412134   -1.0375327516    0.8237424141
      4  O         1.3622770935   -1.9996449378    0.2240671469
      5  N         1.8412765474    1.7886717776   -0.6802997450
      6  N         1.1223201097    0.9711445377   -0.3690676561
      7  H        -1.4803084068    0.9576796178   -0.4980384295
      8  H        -1.5645633920   -0.8072282581   -0.5051092077
      9  H        -1.4931583685    0.0704023274    1.0314188721
   Point Group: c1    Number of degrees of freedom:    21


   Energy is   -317.347393490

 Hessian Updated using Powell/Murtagh-Sargent Update
  Mixing factors:     0.971385 Powell
                      0.028615 Murtagh-Sargent

 21 Hessian modes will be used to form the next step
  Hessian Eigenvalues:
    -0.031408    0.004829    0.017810    0.060322    0.061272    0.083898
     0.114770    0.121473    0.127291    0.139120    0.161611    0.164626
     0.193153    0.311533    0.319975    0.332770    0.338047    0.406582
     0.577636    0.809554    0.960299

 Transition State Search - Taking P-RFO Step
 Searching for Lamda that Maximizes Along the Lowest mode
 Value Taken    Lamda =   0.00005510
 Searching for Lamda that Minimizes Along All other modes
 Value Taken    Lamda =  -0.00013827
 Step Taken.  Stepsize is  0.094918

                             Maximum     Tolerance    Cnvgd?
         Gradient           0.002737      0.000100      NO
         Displacement       0.050559      0.000400      NO
         Energy change      0.000617      0.000000      NO


 New Cartesian Coordinates Obtained by Inverse Iteration

 Displacement from previous Coordinates is:  0.108712
 Adding empirical dispersion correction 
 ----------------------------------------------------------------
 Doing -D3(0) with
 s6  =   1.00000
 s8  =   1.00000
 rs6 =   1.28100
 rs8 =   1.09400
 -D3 energy without 3body term =     -0.0018399161 hartrees
 ----------------------------------------------------------------
             Standard Nuclear Orientation (Angstroms)
    I     Atom           X                Y                Z
 ----------------------------------------------------------------
    1      C      -1.1249375945     0.0559132795     0.0022938186
    2      C       0.3655261888     0.0037425222    -0.0221926548
    3      N       1.0331996002    -1.0482577487     0.8204928355
    4      O       1.3446674199    -2.0124300232     0.2080955192
    5      N       1.8344150637     1.8012848111    -0.6768542192
    6      N       1.1214984978     0.9755810331    -0.3626887395
    7      H      -1.4751816299     0.9455234730    -0.5193962855
    8      H      -1.5560011431    -0.8188304486    -0.4879339624
    9      H      -1.5005154030     0.0932151017     1.0294336883
 ----------------------------------------------------------------
 Nuclear Repulsion Energy =   209.2204498975 hartrees
 There are       22 alpha and       22 beta electrons
 Applying Cartesian multipole field
    Component          Value
    ---------          -----
     (2,0,0)        1.00000E-11
     (0,2,0)        2.00000E-11
     (0,0,2)       -3.00000E-10
 Nucleus-field energy     =    -0.0000000040 hartrees
 Requested basis set is def2-TZVP
 There are 78 shells and 204 basis functions
 A cutoff of  1.0D-11 yielded   2861 shell pairs
 There are     20149 function pairs (     26611 Cartesian)
 Smallest overlap matrix eigenvalue = 1.67E-04

 -----------------------------------------------------------------------
  General SCF calculation program by
  Eric Jon Sundstrom, Paul Horn, Yuezhi Mao, Dmitri Zuev, Alec White,
  David Stuck, Shaama M.S., Shane Yost, Joonho Lee, David Small,
  Daniel Levine, Susi Lehtola, Hugh Burton, Evgeny Epifanovsky
 -----------------------------------------------------------------------
 Exchange:     0.1957 Hartree-Fock + 1.0000 wB97X-D3 + LR-HF
 Correlation:  1.0000 wB97X-D3
 Using SG-2 standard quadrature grid
 Dispersion:   Grimme D3
 using 16 threads for integral computing
 -------------------------------------------------------
 OpenMP Integral computing Module                
 Release: version 1.0, May 2013, Q-Chem Inc. Pittsburgh 
 -------------------------------------------------------
 using 16 threads for integral computing
 -------------------------------------------------------
 OpenMP Integral computing Module                
 Release: version 1.0, May 2013, Q-Chem Inc. Pittsburgh 
 -------------------------------------------------------
 -------------------------------------------------------
 OpenMP BLAS3 based DFT computing Module                
 Release: version 1.0, May 2013, Q-Chem Inc. Pittsburgh 
 -------------------------------------------------------
 A unrestricted SCF calculation will be
 performed using DIIS
 SCF converges when DIIS error is below 1.0e-08
 ---------------------------------------
  Cycle       Energy         DIIS error
 ---------------------------------------
    1    -317.3463443500      1.98e-04  
    2    -317.3473242299      4.24e-05  
    3    -317.3474052709      3.35e-05  
    4    -317.3474265688      1.49e-05  
    5    -317.3474389623      5.59e-06  
    6    -317.3474427928      4.39e-06  
    7    -317.3474457760      2.39e-06  
    8    -317.3474471464      1.06e-06  
    9    -317.3474473995      6.36e-07  
   10    -317.3474474628      2.66e-07  
   11    -317.3474474746      1.33e-07  
   12    -317.3474474786      5.85e-08  
   13    -317.3474474793      1.70e-08  
   14    -317.3474474793      5.35e-09  Convergence criterion met
 ---------------------------------------
 SCF time:   CPU 421.64s  wall 30.00s 
<S^2> =          0.000000000
 SCF   energy in the final basis set =     -317.3474474793
 Total energy in the final basis set =     -317.3474474793
 No wavefunction analysis requested
 Calculating analytic gradient of the SCF energy
 Gradient of SCF Energy
            1           2           3           4           5           6
    1   0.0001040  -0.0001795   0.0000862   0.0003375   0.0013409  -0.0017105
    2  -0.0000963   0.0010623  -0.0009001   0.0000250   0.0010151  -0.0011845
    3   0.0001830  -0.0017097   0.0003536   0.0004075  -0.0002688   0.0007363
            7           8           9
    1   0.0000198  -0.0000644   0.0000659
    2  -0.0000155   0.0000022   0.0000919
    3   0.0000730   0.0001299   0.0000952
 Max gradient component =       1.710E-03
 RMS gradient           =       6.987E-04
 Gradient time:  CPU 83.81 s  wall 5.86 s
 Geometry Optimization Parameters
   NAtoms,    NIC,     NZ,  NCons,   NDum,   NFix, NCnnct, MaxDiis
        9      47       0       0       0       0       0       0

 Cartesian Hessian Update
 Hessian Updated using Powell/Murtagh-Sargent Update
  Mixing factors:     0.999499 Powell
                      0.000501 Murtagh-Sargent


** GEOMETRY OPTIMIZATION IN DELOCALIZED INTERNAL COORDINATES **
   Searching for a Transition State

   Optimization Cycle:   4

                       Coordinates (Angstroms)
     ATOM                X               Y               Z
      1  C        -1.1249375945    0.0559132795    0.0022938186
      2  C         0.3655261888    0.0037425222   -0.0221926548
      3  N         1.0331996002   -1.0482577487    0.8204928355
      4  O         1.3446674199   -2.0124300232    0.2080955192
      5  N         1.8344150637    1.8012848111   -0.6768542192
      6  N         1.1214984978    0.9755810331   -0.3626887395
      7  H        -1.4751816299    0.9455234730   -0.5193962855
      8  H        -1.5560011431   -0.8188304486   -0.4879339624
      9  H        -1.5005154030    0.0932151017    1.0294336883
   Point Group: c1    Number of degrees of freedom:    21


   Energy is   -317.347447479

 Hessian Updated using Powell/Murtagh-Sargent Update
  Mixing factors:     0.991381 Powell
                      0.008619 Murtagh-Sargent

 21 Hessian modes will be used to form the next step
  Hessian Eigenvalues:
    -0.034024    0.002888    0.012841    0.060295    0.061265    0.083283
     0.116521    0.123270    0.127714    0.139504    0.161645    0.164661
     0.192799    0.311537    0.319973    0.332765    0.338054    0.406555
     0.577870    0.809568    0.961018

 Transition State Search - Taking P-RFO Step
 Searching for Lamda that Maximizes Along the Lowest mode
 Value Taken    Lamda =   0.00000511
 Searching for Lamda that Minimizes Along All other modes
 Value Taken    Lamda =  -0.00015114
 Step Taken.  Stepsize is  0.184539

                             Maximum     Tolerance    Cnvgd?
         Gradient           0.001461      0.000100      NO
         Displacement       0.090955      0.000400      NO
         Energy change     -0.000054      0.000000      NO


 New Cartesian Coordinates Obtained by Inverse Iteration

 Displacement from previous Coordinates is:  0.205064
 Adding empirical dispersion correction 
 ----------------------------------------------------------------
 Doing -D3(0) with
 s6  =   1.00000
 s8  =   1.00000
 rs6 =   1.28100
 rs8 =   1.09400
 -D3 energy without 3body term =     -0.0018450615 hartrees
 ----------------------------------------------------------------
             Standard Nuclear Orientation (Angstroms)
    I     Atom           X                Y                Z
 ----------------------------------------------------------------
    1      C      -1.1238175432     0.0580099454     0.0112382403
    2      C       0.3663622192     0.0136120027     0.0234510218
    3      N       1.0319856351    -1.0617711980     0.8128022755
    4      O       1.3420732556    -2.0014894496     0.1581197578
    5      N       1.8277703413     1.7984949352    -0.6778716561
    6      N       1.1263291329     0.9696949272    -0.3488545170
    7      H      -1.4633911179     0.9231180794    -0.5568464598
    8      H      -1.5364833734    -0.8384213229    -0.4556586155
    9      H      -1.5281575496     0.1344940807     1.0248699532
 ----------------------------------------------------------------
 Nuclear Repulsion Energy =   209.5886208168 hartrees
 There are       22 alpha and       22 beta electrons
 Applying Cartesian multipole field
    Component          Value
    ---------          -----
     (2,0,0)        1.00000E-11
     (0,2,0)        2.00000E-11
     (0,0,2)       -3.00000E-10
 Nucleus-field energy     =    -0.0000000037 hartrees
 Requested basis set is def2-TZVP
 There are 78 shells and 204 basis functions
 A cutoff of  1.0D-11 yielded   2861 shell pairs
 There are     20151 function pairs (     26613 Cartesian)
 Smallest overlap matrix eigenvalue = 1.65E-04

 -----------------------------------------------------------------------
  General SCF calculation program by
  Eric Jon Sundstrom, Paul Horn, Yuezhi Mao, Dmitri Zuev, Alec White,
  David Stuck, Shaama M.S., Shane Yost, Joonho Lee, David Small,
  Daniel Levine, Susi Lehtola, Hugh Burton, Evgeny Epifanovsky
 -----------------------------------------------------------------------
 Exchange:     0.1957 Hartree-Fock + 1.0000 wB97X-D3 + LR-HF
 Correlation:  1.0000 wB97X-D3
 Using SG-2 standard quadrature grid
 Dispersion:   Grimme D3
 using 16 threads for integral computing
 -------------------------------------------------------
 OpenMP Integral computing Module                
 Release: version 1.0, May 2013, Q-Chem Inc. Pittsburgh 
 -------------------------------------------------------
 using 16 threads for integral computing
 -------------------------------------------------------
 OpenMP Integral computing Module                
 Release: version 1.0, May 2013, Q-Chem Inc. Pittsburgh 
 -------------------------------------------------------
 -------------------------------------------------------
 OpenMP BLAS3 based DFT computing Module                
 Release: version 1.0, May 2013, Q-Chem Inc. Pittsburgh 
 -------------------------------------------------------
 A unrestricted SCF calculation will be
 performed using DIIS
 SCF converges when DIIS error is below 1.0e-08
 ---------------------------------------
  Cycle       Energy         DIIS error
 ---------------------------------------
    1    -317.3445181138      3.47e-04  
    2    -317.3472677986      6.15e-05  
    3    -317.3474500253      2.34e-05  
    4    -317.3474613593      2.24e-05  
    5    -317.3474718479      4.23e-06  
    6    -317.3474735795      2.69e-06  
    7    -317.3474748825      1.84e-06  
    8    -317.3474753206      1.16e-06  
    9    -317.3474756173      5.22e-07  
   10    -317.3474756785      2.82e-07  
   11    -317.3474756865      1.06e-07  
   12    -317.3474756889      5.64e-08  
   13    -317.3474756897      2.66e-08  
   14    -317.3474756900      1.01e-08  
   15    -317.3474756900      3.83e-09  Convergence criterion met
 ---------------------------------------
 SCF time:   CPU 469.00s  wall 33.00s 
<S^2> =          0.000000000
 SCF   energy in the final basis set =     -317.3474756900
 Total energy in the final basis set =     -317.3474756900
 No wavefunction analysis requested
 Calculating analytic gradient of the SCF energy
 Gradient of SCF Energy
            1           2           3           4           5           6
    1   0.0002285   0.0006490  -0.0010263   0.0000066  -0.0007939   0.0008890
    2  -0.0002236  -0.0018873   0.0033602  -0.0012998  -0.0005364   0.0004189
    3  -0.0003832   0.0018597  -0.0015539  -0.0003015   0.0006829  -0.0004547
            7           8           9
    1  -0.0000242  -0.0000611   0.0001324
    2  -0.0000099  -0.0000334   0.0002112
    3  -0.0000645   0.0001564   0.0000588
 Max gradient component =       3.360E-03
 RMS gradient           =       9.979E-04
 Gradient time:  CPU 83.04 s  wall 5.98 s
 Geometry Optimization Parameters
   NAtoms,    NIC,     NZ,  NCons,   NDum,   NFix, NCnnct, MaxDiis
        9      47       0       0       0       0       0       0

 Cartesian Hessian Update
 Hessian Updated using Powell/Murtagh-Sargent Update
  Mixing factors:     0.999611 Powell
                      0.000389 Murtagh-Sargent


** GEOMETRY OPTIMIZATION IN DELOCALIZED INTERNAL COORDINATES **
   Searching for a Transition State

   Optimization Cycle:   5

                       Coordinates (Angstroms)
     ATOM                X               Y               Z
      1  C        -1.1238175432    0.0580099454    0.0112382403
      2  C         0.3663622192    0.0136120027    0.0234510218
      3  N         1.0319856351   -1.0617711980    0.8128022755
      4  O         1.3420732556   -2.0014894496    0.1581197578
      5  N         1.8277703413    1.7984949352   -0.6778716561
      6  N         1.1263291329    0.9696949272   -0.3488545170
      7  H        -1.4633911179    0.9231180794   -0.5568464598
      8  H        -1.5364833734   -0.8384213229   -0.4556586155
      9  H        -1.5281575496    0.1344940807    1.0248699532
   Point Group: c1    Number of degrees of freedom:    21


   Energy is   -317.347475690

 Hessian Updated using Powell/Murtagh-Sargent Update
  Mixing factors:     0.980488 Powell
                      0.019512 Murtagh-Sargent

 21 Hessian modes will be used to form the next step
  Hessian Eigenvalues:
    -0.034884    0.003139    0.012536    0.060293    0.061254    0.083257
     0.116527    0.125493    0.129407    0.140952    0.161641    0.164661
     0.193269    0.311547    0.319974    0.332773    0.338056    0.406536
     0.577874    0.809768    0.961384

 Transition State Search - Taking P-RFO Step
 Searching for Lamda that Maximizes Along the Lowest mode
 Value Taken    Lamda =   0.00001589
 Searching for Lamda that Minimizes Along All other modes
 Value Taken    Lamda =  -0.00008040
 Step Taken.  Stepsize is  0.039483

                             Maximum     Tolerance    Cnvgd?
         Gradient           0.001684      0.000100      NO
         Displacement       0.020469      0.000400      NO
         Energy change     -0.000028      0.000000      NO


 New Cartesian Coordinates Obtained by Inverse Iteration

 Displacement from previous Coordinates is:  0.044491
 Adding empirical dispersion correction 
 ----------------------------------------------------------------
 Doing -D3(0) with
 s6  =   1.00000
 s8  =   1.00000
 rs6 =   1.28100
 rs8 =   1.09400
 -D3 energy without 3body term =     -0.0018473401 hartrees
 ----------------------------------------------------------------
             Standard Nuclear Orientation (Angstroms)
    I     Atom           X                Y                Z
 ----------------------------------------------------------------
    1      C      -1.1236542857     0.0578879045     0.0104223085
[...]
    4  -0.0440580   0.0243245  -0.0384113  -0.0164796   0.0299773   0.0066369
    5   0.0230674  -0.0238410   0.0482660   0.0339274  -0.0953082  -0.0063787
    6  -0.0355068   0.0292634  -0.1341943   0.0060561   0.0047066   0.0544258
    7   0.0673661  -0.1891256  -0.0309259  -0.0297423   0.1636402   0.0747268
    8  -0.1891256   0.5703262   0.2830939   0.1675402  -0.5156119  -0.3330619
    9  -0.0309259   0.2830939   0.4616884   0.0779855  -0.3417290  -0.3255749
   10  -0.0297423   0.1675402   0.0779855   0.0527154  -0.2030666  -0.0875341
   11   0.1636402  -0.5156119  -0.3417290  -0.2030666   0.6095833   0.3369876
   12   0.0747268  -0.3330619  -0.3255749  -0.0875341   0.3369876   0.2749594
   13  -0.0032048   0.0099240   0.0039744   0.0026445  -0.0077372  -0.0043822
   14   0.0042171   0.0081555   0.0069585  -0.0012038  -0.0035269  -0.0035164
   15   0.0039027  -0.0014410   0.0066337  -0.0049430   0.0027733  -0.0017969
   16   0.0149043  -0.0149173  -0.0103134  -0.0067872   0.0173524   0.0096609
   17  -0.0206393  -0.0421126   0.0017227   0.0051825   0.0070852   0.0064096
   18  -0.0125138   0.0160231  -0.0155835   0.0172490  -0.0024755   0.0001075
   19  -0.0016979  -0.0027995   0.0012588  -0.0008656   0.0020939   0.0005638
   20   0.0002083  -0.0002651  -0.0007379  -0.0004934   0.0008291   0.0004053
   21   0.0004977  -0.0000772   0.0006271  -0.0002269   0.0000388  -0.0001807
   22   0.0030181  -0.0016726   0.0009664  -0.0014852   0.0016451   0.0007907
   23  -0.0006584  -0.0001728   0.0004319  -0.0001856   0.0008021  -0.0004022
   24  -0.0001425  -0.0009792  -0.0009664  -0.0000511   0.0002894   0.0001565
   25   0.0010494  -0.0024462  -0.0014841   0.0006338   0.0003789   0.0006354
   26  -0.0014438  -0.0003818  -0.0009367   0.0006997   0.0002688   0.0001661
   27   0.0010434   0.0002853   0.0004373  -0.0000659  -0.0007898  -0.0006767
           13          14          15          16          17          18
    1   0.0039917   0.0049551  -0.0028351  -0.0247205  -0.0104249   0.0072467
    2   0.0016476  -0.0003505   0.0033250  -0.0333483  -0.0016330  -0.0026659
    3   0.0003966   0.0056526   0.0039937   0.0122331  -0.0081518  -0.0028359
    4  -0.0162452  -0.0506534   0.0208765  -0.2513915  -0.1858268   0.0849550
    5  -0.0575626  -0.0447112   0.0230114  -0.1633134  -0.2828508   0.1288721
    6   0.0202533   0.0170235   0.0058109   0.0787881   0.1404574  -0.0919096
    7  -0.0032048   0.0042171   0.0039027   0.0149043  -0.0206393  -0.0125138
    8   0.0099240   0.0081555  -0.0014410  -0.0149173  -0.0421126   0.0160231
    9   0.0039744   0.0069585   0.0066337  -0.0103134   0.0017227  -0.0155835
   10   0.0026445  -0.0012038  -0.0049430  -0.0067872   0.0051825   0.0172490
   11  -0.0077372  -0.0035269   0.0027733   0.0173524   0.0070852  -0.0024755
   12  -0.0043822  -0.0035164  -0.0017969   0.0096609   0.0064096   0.0001075
   13   0.4541135   0.4959242  -0.2288232  -0.4350235  -0.4448206   0.2092590
   14   0.4959242   0.5930289  -0.2550366  -0.4444029  -0.5553801   0.2304287
   15  -0.2288232  -0.2550366   0.1499009   0.2077217   0.2292196  -0.1639373
   16  -0.4350235  -0.4444029   0.2077217   0.6998276   0.6426676  -0.2994742
   17  -0.4448206  -0.5553801   0.2292196   0.6426676   0.8774136  -0.3712077
   18   0.2092590   0.2304287  -0.1639373  -0.2994742  -0.3712077   0.2727915
   19  -0.0023793  -0.0023443   0.0010909   0.0058061   0.0032397  -0.0016320
   20   0.0006141   0.0004491  -0.0004995  -0.0009676   0.0005379   0.0006839
   21  -0.0001385  -0.0003067  -0.0001720   0.0003135   0.0003494   0.0011420
   22  -0.0018268  -0.0020543   0.0030139  -0.0016999   0.0025087  -0.0059191
   23   0.0008588   0.0010066  -0.0007559  -0.0008506  -0.0012730  -0.0004090
   24  -0.0009482  -0.0010636   0.0000791   0.0023793   0.0018169  -0.0002374
   25  -0.0020701  -0.0044375  -0.0000043  -0.0009154   0.0081130   0.0008294
   26   0.0011517   0.0013286  -0.0005963  -0.0022199  -0.0017872   0.0007504
   27   0.0004088  -0.0001399  -0.0005120  -0.0013088  -0.0006160   0.0004626
           19          20          21          22          23          24
    1  -0.0736317   0.0750934  -0.0393877  -0.0754903  -0.0701015  -0.0476601
    2   0.0722574  -0.2458692   0.1029963  -0.0720405  -0.2109999  -0.1089092
    3  -0.0377690   0.1034034  -0.0974489  -0.0503943  -0.1078318  -0.1201726
    4  -0.0168417  -0.0019655   0.0005992  -0.0206273  -0.0011395  -0.0018893
    5   0.0277648   0.0006323  -0.0009548  -0.0261116   0.0043798   0.0030729
    6  -0.0161715  -0.0014139  -0.0020984  -0.0125484   0.0036870   0.0036241
    7  -0.0016979   0.0002083   0.0004977   0.0030181  -0.0006584  -0.0001425
    8  -0.0027995  -0.0002651  -0.0000772  -0.0016726  -0.0001728  -0.0009792
    9   0.0012588  -0.0007379   0.0006271   0.0009664   0.0004319  -0.0009664
   10  -0.0008656  -0.0004934  -0.0002269  -0.0014852  -0.0001856  -0.0000511
   11   0.0020939   0.0008291   0.0000388   0.0016451   0.0008021   0.0002894
   12   0.0005638   0.0004053  -0.0001807   0.0007907  -0.0004022   0.0001565
   13  -0.0023793   0.0006141  -0.0001385  -0.0018268   0.0008588  -0.0009482
   14  -0.0023443   0.0004491  -0.0003067  -0.0020543   0.0010066  -0.0010636
   15   0.0010909  -0.0004995  -0.0001720   0.0030139  -0.0007559   0.0000791
   16   0.0058061  -0.0009676   0.0003135  -0.0016999  -0.0008506   0.0023793
   17   0.0032397   0.0005379   0.0003494   0.0025087  -0.0012730   0.0018169
   18  -0.0016320   0.0006839   0.0011420  -0.0059191  -0.0004090  -0.0002374
   19   0.0820523  -0.0796289   0.0420816   0.0036578  -0.0093416   0.0062913
   20  -0.0796289   0.2620418  -0.1123314   0.0079637  -0.0189386   0.0116180
   21   0.0420816  -0.1123314   0.1013073   0.0067859  -0.0148506   0.0080859
   22   0.0036578   0.0079637   0.0067859   0.0897786   0.0800848   0.0521824
   23  -0.0093416  -0.0189386  -0.0148506   0.0800848   0.2237100   0.1186562
   24   0.0062913   0.0116180   0.0080859   0.0521824   0.1186562   0.1248058
   25   0.0039001  -0.0008240  -0.0105248   0.0046750   0.0013337  -0.0101617
   26  -0.0112414   0.0005827   0.0251362   0.0096767   0.0014857  -0.0245015
   27   0.0042861  -0.0011279  -0.0112623   0.0051225   0.0014744  -0.0153750
           25          26          27
    1  -0.0792655  -0.0026633   0.0868123
    2  -0.0016867  -0.0481224   0.0079064
    3   0.0905044   0.0071396  -0.2774422
    4  -0.0206378   0.0007313   0.0023496
    5  -0.0057402   0.0008181   0.0011014
    6   0.0288537   0.0009361   0.0070564
    7   0.0010494  -0.0014438   0.0010434
    8  -0.0024462  -0.0003818   0.0002853
    9  -0.0014841  -0.0009367   0.0004373
   10   0.0006338   0.0006997  -0.0000659
   11   0.0003789   0.0002688  -0.0007898
   12   0.0006354   0.0001661  -0.0006767
   13  -0.0020701   0.0011517   0.0004088
   14  -0.0044375   0.0013286  -0.0001399
   15  -0.0000043  -0.0005963  -0.0005120
   16  -0.0009154  -0.0022199  -0.0013088
   17   0.0081130  -0.0017872  -0.0006160
   18   0.0008294   0.0007504   0.0004626
   19   0.0039001  -0.0112414   0.0042861
   20  -0.0008240   0.0005827  -0.0011279
   21  -0.0105248   0.0251362  -0.0112623
   22   0.0046750   0.0096767   0.0051225
   23   0.0013337   0.0014857   0.0014744
   24  -0.0101617  -0.0245015  -0.0153750
   25   0.0926304   0.0053091  -0.0986480
   26   0.0053091   0.0458074  -0.0080939
   27  -0.0986480  -0.0080939   0.2973119
 Gradient time:  CPU 3844.45 s  wall 1120.91 s
 **********************************************************************
 **                                                                  **
 **                       VIBRATIONAL ANALYSIS                       **
 **                       --------------------                       **
 **                                                                  **
 **        VIBRATIONAL FREQUENCIES (CM**-1) AND NORMAL MODES         **
 **     FORCE CONSTANTS (mDYN/ANGSTROM) AND REDUCED MASSES (AMU)     **
 **                  INFRARED INTENSITIES (KM/MOL)                   **
 **                                                                  **
 **********************************************************************
 

 Mode:                 1                      2                      3
 Frequency:      -295.47                  95.01                 133.00
 Force Cnst:      0.5987                 0.0095                 0.0182
 Red. Mass:      11.6390                 1.7789                 1.7464
 IR Active:          YES                    YES                    YES
 IR Intens:        0.447                  0.970                  1.301
 Raman Active:       YES                    YES                    YES
               X      Y      Z        X      Y      Z        X      Y      Z
 C          0.039 -0.175 -0.114   -0.004  0.070  0.052    0.017  0.046  0.031
 C          0.049 -0.021 -0.044    0.002 -0.083 -0.171    0.023 -0.065 -0.156
 N          0.561  0.231 -0.106   -0.014 -0.007 -0.049   -0.018  0.004 -0.028
 O         -0.494 -0.222  0.103    0.042 -0.058  0.056    0.010 -0.074  0.104
 N         -0.024  0.083  0.046   -0.022  0.055  0.080   -0.036  0.073  0.032
 N         -0.057  0.147  0.109   -0.009  0.004 -0.013    0.005  0.007 -0.039
 H          0.023 -0.248 -0.246    0.040 -0.138 -0.385    0.000  0.320  0.575
 H          0.108 -0.254 -0.036   -0.167 -0.170  0.533   -0.134  0.363 -0.339
 H         -0.021 -0.046 -0.135    0.114  0.630  0.123    0.183 -0.450  0.082
 TransDip  -0.021 -0.004 -0.001    0.012  0.028  0.007    0.026  0.023  0.012

 Mode:                 4                      5                      6
 Frequency:       193.55                 280.44                 509.56
 Force Cnst:      0.1647                 0.1598                 1.9245
 Red. Mass:       7.4642                 3.4476                12.5797
 IR Active:          YES                    YES                    YES
 IR Intens:        4.359                  0.786                  0.874
 Raman Active:       YES                    YES                    YES
               X      Y      Z        X      Y      Z        X      Y      Z
 C         -0.212 -0.115  0.112   -0.091  0.245 -0.115   -0.110  0.026 -0.015
 C         -0.203  0.007 -0.175   -0.086 -0.080  0.078   -0.048  0.160 -0.064
 N          0.103  0.228 -0.117    0.209  0.001 -0.000   -0.043 -0.278 -0.055
 O          0.093  0.157 -0.003    0.121 -0.022 -0.005    0.185 -0.298  0.112
 N          0.336 -0.294  0.193   -0.100 -0.109  0.009    0.215 -0.090 -0.312
 N         -0.143  0.011 -0.062   -0.077 -0.090  0.070   -0.221  0.558  0.320
 H         -0.405 -0.077  0.328    0.280  0.401 -0.092   -0.226 -0.047 -0.073
 H         -0.259 -0.071  0.081   -0.260  0.436 -0.281    0.073 -0.025 -0.066
 H          0.017 -0.300  0.200   -0.295  0.296 -0.200   -0.220 -0.046 -0.062
 TransDip  -0.066  0.010  0.000   -0.028  0.005 -0.001    0.023 -0.008  0.018

 Mode:                 7                      8                      9
 Frequency:       536.22                 647.23                 800.52
 Force Cnst:      2.0361                 1.3959                 2.7102
 Red. Mass:      12.0190                 5.6556                 7.1781
 IR Active:          YES                    YES                    YES
 IR Intens:        8.654                  7.507                 18.968
 Raman Active:       YES                    YES                    YES
               X      Y      Z        X      Y      Z        X      Y      Z
 C          0.059 -0.054 -0.000   -0.346 -0.004  0.009   -0.211 -0.020 -0.064
 C          0.033 -0.280 -0.289   -0.129  0.166  0.023    0.024 -0.113 -0.208
 N         -0.114  0.221 -0.044    0.056  0.001 -0.107    0.176 -0.234  0.464
 O         -0.051  0.243 -0.082    0.063 -0.106  0.062   -0.083  0.139 -0.145
 N         -0.141 -0.167 -0.262   -0.008  0.154 -0.060    0.084  0.099 -0.038
 N          0.218 -0.042  0.629    0.362 -0.141  0.061    0.049  0.081 -0.052
 H          0.070  0.006  0.115   -0.682 -0.138 -0.004   -0.307  0.057  0.143
 H         -0.136  0.012  0.048   -0.079 -0.165  0.062   -0.592  0.046  0.111
 H          0.290 -0.066  0.098   -0.279 -0.142  0.031    0.151  0.052  0.092
 TransDip  -0.020  0.084  0.038   -0.083 -0.004 -0.029    0.058 -0.076  0.102

 Mode:                10                     11                     12
 Frequency:       975.53                1062.02                1185.74
 Force Cnst:      0.9678                 0.9071                 3.1399
 Red. Mass:       1.7260                 1.3650                 3.7904
 IR Active:          YES                    YES                    YES
 IR Intens:       31.008                  1.528                  4.752
 Raman Active:       YES                    YES                    YES
               X      Y      Z        X      Y      Z        X      Y      Z
 C         -0.098 -0.118  0.083   -0.007  0.082  0.114   -0.166  0.124 -0.086
 C          0.063 -0.100  0.046    0.014 -0.049 -0.087    0.307 -0.237  0.167
 N         -0.039  0.039 -0.033    0.015 -0.011  0.033   -0.053  0.082 -0.060
 O         -0.002  0.005  0.002   -0.012  0.017 -0.009    0.002 -0.007 -0.003
 N          0.059  0.061 -0.026   -0.004 -0.002  0.008    0.030  0.003 -0.001
 N          0.031  0.046 -0.026   -0.004 -0.005 -0.010   -0.055  0.054 -0.028
 H          0.619  0.087 -0.071   -0.106 -0.152 -0.265   -0.757 -0.037  0.055
 H         -0.349  0.201 -0.214    0.659 -0.029 -0.205    0.013 -0.189  0.255
 H         -0.530  0.210 -0.090   -0.563 -0.226 -0.135    0.117 -0.240  0.023
 TransDip   0.017  0.165 -0.065    0.020 -0.028  0.020   -0.015  0.066 -0.017

 Mode:                13                     14                     15
 Frequency:      1418.23                1447.56                1476.36
 Force Cnst:      1.4444                 5.3168                 1.3394
 Red. Mass:       1.2189                 4.3065                 1.0430
 IR Active:          YES                    YES                    YES
 IR Intens:        4.716                  3.509                 11.680
 Raman Active:       YES                    YES                    YES
               X      Y      Z        X      Y      Z        X      Y      Z
 C         -0.115  0.023 -0.008   -0.185 -0.076  0.034   -0.009 -0.024 -0.045
 C         -0.042 -0.038  0.019    0.334  0.264 -0.123   -0.009 -0.014 -0.012
 N          0.000  0.007  0.007    0.004 -0.030 -0.001    0.000  0.001  0.004
 O          0.002 -0.006 -0.005   -0.005  0.012  0.010    0.000 -0.001 -0.002
 N          0.024  0.027 -0.012   -0.137 -0.161  0.072    0.004  0.005 -0.002
 N         -0.002  0.003 -0.002   -0.028 -0.033  0.017    0.000  0.000 -0.001
 H          0.553  0.178 -0.171    0.110  0.038 -0.010    0.031  0.332  0.619
 H          0.450 -0.224 -0.016    0.209  0.140 -0.523    0.369 -0.332  0.188
 H          0.521 -0.192  0.232    0.229  0.518  0.198   -0.248  0.383 -0.112
 TransDip  -0.032 -0.057  0.024   -0.007 -0.057  0.019   -0.015  0.057  0.092

 Mode:                16                     17                     18
 Frequency:      1512.84                1720.94                2190.16
 Force Cnst:      1.6102                25.5480                38.5200
 Red. Mass:       1.1941                14.6412                13.6297
 IR Active:          YES                    YES                    YES
 IR Intens:       17.421                158.672                594.304
 Raman Active:       YES                    YES                    YES
               X      Y      Z        X      Y      Z        X      Y      Z
 C          0.011 -0.034  0.021    0.015 -0.006  0.011    0.006  0.001 -0.005
 C         -0.064 -0.078  0.040   -0.011  0.083 -0.063   -0.161 -0.165  0.089
 N         -0.004  0.013  0.001   -0.156  0.565  0.439    0.005 -0.034 -0.020
 O          0.002 -0.006 -0.005    0.158 -0.529 -0.355   -0.008  0.027  0.016
 N          0.032  0.036 -0.016   -0.042 -0.050  0.026   -0.352 -0.402  0.186
 N          0.001  0.008 -0.005    0.025  0.025 -0.013    0.476  0.550 -0.259
 H         -0.348 -0.157  0.024    0.008 -0.018 -0.012    0.035  0.016 -0.009
 H          0.253  0.247 -0.551   -0.069  0.032  0.024    0.068 -0.056 -0.007
 H          0.290  0.552  0.141   -0.078 -0.032 -0.033    0.080 -0.025  0.055
 TransDip  -0.031  0.117 -0.056   -0.078  0.392 -0.052    0.465  0.580 -0.238

 Mode:                19                     20                     21
 Frequency:      3050.32                3112.04                3160.33
 Force Cnst:      5.6856                 6.2919                 6.4734
 Red. Mass:       1.0371                 1.1027                 1.1001
 IR Active:          YES                    YES                    YES
 IR Intens:       27.515                 10.404                  4.286
 Raman Active:       YES                    YES                    YES
               X      Y      Z        X      Y      Z        X      Y      Z
 C          0.048  0.013 -0.014   -0.003 -0.041 -0.083    0.009 -0.082  0.039
 C          0.001  0.000 -0.000    0.000  0.000  0.000   -0.002 -0.001  0.001
 N          0.000  0.001  0.000    0.000 -0.000  0.000   -0.000 -0.000 -0.000
 O          0.000 -0.000 -0.000    0.000  0.000 -0.000   -0.000  0.000  0.000
 N          0.001  0.001 -0.000    0.000  0.000 -0.000    0.000  0.000 -0.000
 N         -0.001 -0.002  0.001   -0.000 -0.000 -0.000    0.000  0.000 -0.000
 H         -0.118  0.331 -0.172    0.019 -0.060  0.010   -0.294  0.774 -0.400
 H         -0.205 -0.462 -0.317    0.268  0.583  0.373    0.106  0.218  0.164
 H         -0.254 -0.017  0.650   -0.251 -0.033  0.611    0.093 -0.007 -0.228
 TransDip   0.161  0.037 -0.033   -0.008 -0.042 -0.094   -0.015 -0.058  0.028

 STANDARD THERMODYNAMIC QUANTITIES AT   298.15 K  AND     1.00 ATM

   This Molecule has  1 Imaginary Frequencies
   Zero point vibrational energy:       36.465 kcal/mol

   Atom    1 Element C  Has Mass   12.00000
   Atom    2 Element C  Has Mass   12.00000
   Atom    3 Element N  Has Mass   14.00307
   Atom    4 Element O  Has Mass   15.99491
   Atom    5 Element N  Has Mass   14.00307
   Atom    6 Element N  Has Mass   14.00307
   Atom    7 Element H  Has Mass    1.00783
   Atom    8 Element H  Has Mass    1.00783
   Atom    9 Element H  Has Mass    1.00783
   Molecular Mass:    85.027610 amu
   Principal axes and moments of inertia in amu*Bohr^2:
                             1           2           3
    Eigenvalues --      324.57192   571.31206   840.99850
          X               0.14606     0.98659     0.07278
          Y               0.93723    -0.16155     0.30903
          Z              -0.31664    -0.02308     0.94826
   Rotational Symmetry Number is   1
   The Molecule is an Asymmetric Top
   Translational Enthalpy:        0.889 kcal/mol
   Rotational Enthalpy:           0.889 kcal/mol
   Vibrational Enthalpy:         38.458 kcal/mol
   gas constant (RT):             0.592 kcal/mol
   Translational Entropy:        39.234  cal/mol.K
   Rotational Entropy:           26.547  cal/mol.K
   Vibrational Entropy:          12.252  cal/mol.K

   Total Enthalpy:               40.828 kcal/mol
   Total Entropy:                78.033  cal/mol.K
Archival summary:
1\1\nid00492\FREQ\ProcedureUnspecified\BasisUnspecified\1323\cgrambow\WedFeb1300:14:352019WedFeb1300:14:352019\0\\#,FREQ,ProcedureUnspecified,BasisUnspecified,\\0,1\N\N,1,1.13538\C,1,1.2757,2,178.026\C,3,1.49048,1,125.274,2,-169.077,0\H,4,1.0892,3,110.034,1,2.24172,0\H,4,1.09229,3,111.268,1,122.272,0\H,4,1.0936,3,110.875,1,-117.218,0\N,3,1.49876,1,115.525,2,22.7437,0\O,8,1.18521,3,113.073,1,-96.9898,0\\\@

 Total job time:  1125.90s(wall), 3914.52s(cpu) 
 Wed Feb 13 00:14:35 2019

        *************************************************************
        *                                                           *
        *  Thank you very much for using Q-Chem.  Have a nice day.  *
        *                                                           *
        *************************************************************


