
Running Job 1 of 2 prod_optfreq0327.in
qchem prod_optfreq0327.in_10490.0 /tmp/qchem10490/ 1
/global/common/cori/software/qchem/5.1/exe/qcprog.exe prod_optfreq0327.in_10490.0 /tmp/qchem10490/
Check license passed

                  Welcome to Q-Chem
     A Quantum Leap Into The Future Of Chemistry


 Q-Chem 5.1, Q-Chem, Inc., Pleasanton, CA (2018)

 Yihan Shao,  Zhengting Gan,  E. Epifanovsky,  A. T. B. Gilbert,  M. Wormit,  
 J. Kussmann,  A. W. Lange,  A. Behn,  Jia Deng,  Xintian Feng,  D. Ghosh,  
 M. Goldey,  P. R. Horn,  L. D. Jacobson,  I. Kaliman,  T. Kus,  A. Landau,  
 Jie Liu,  E. I. Proynov,  R. M. Richard,  R. P. Steele,  E. J. Sundstrom,  
 H. L. Woodcock III,  P. M. Zimmerman,  D. Zuev,  B. Albrecht,  E. Alguire,  
 S. A. Baeppler,  D. Barton,  Z. Benda,  Y. A. Bernard,  E. J. Berquist,  
 K. B. Bravaya,  H. Burton,  D. Casanova,  Chun-Min Chang,  Yunqing Chen,  
 A. Chien,  K. D. Closser,  M. P. Coons,  S. Coriani,  S. Dasgupta,  
 A. L. Dempwolff,  M. Diedenhofen,  Hainam Do,  R. G. Edgar,  Po-Tung Fang,  
 S. Faraji,  S. Fatehi,  Qingguo Feng,  K. D. Fenk,  J. Fosso-Tande,  
 Qinghui Ge,  A. Ghysels,  G. Gidofalvi,  J. Gomes,  J. Gonthier,  A. Gunina,  
 D. Hait,  M. W. D. Hanson-Heine,  P. H. P. Harbach,  A. W. Hauser,  
 J. E. Herr,  E. G. Hohenstein,  Z. C. Holden,  Kerwin Hui,  B. C. Huynh,  
 T.-C. Jagau,  Hyunjun Ji,  B. Kaduk,  K. Khistyaev,  Jaehoon Kim,  
 P. Klunzinger,  K. Koh,  D. Kosenkov,  L. Koulias,  T. Kowalczyk,  
 C. M. Krauter,  A. Kunitsa,  Ka Un Lao,  A. Laurent,  K. V. Lawler,  
 Joonho Lee,  D. Lefrancois,  S. Lehtola,  D. S. Levine,  Yi-Pei Li,  
 You-Sheng Lin,  Fenglai Liu,  E. Livshits,  A. Luenser,  P. Manohar,  
 E. Mansoor,  S. F. Manzer,  Shan-Ping Mao,  Yuezhi Mao,  N. Mardirossian,  
 A. V. Marenich,  T. Markovich,  L. A. Martinez-Martinez,  S. A. Maurer,  
 N. J. Mayhall,  S. C. McKenzie,  J.-M. Mewes,  A. F. Morrison,  
 J. W. Mullinax,  K. Nanda,  T. S. Nguyen-Beck,  R. Olivares-Amaya,  
 J. A. Parkhill,  T. M. Perrine,  F. Plasser,  P. Pokhilko,  S. Prager,  
 A. Prociuk,  E. Ramos,  D. R. Rehn,  F. Rob,  M. Schneider,  N. Sergueev,  
 S. M. Sharada,  S. Sharma,  D. W. Small,  T. Stauch,  T. Stein,  
 Yu-Chuan Su,  A. J. W. Thom,  A. Tkatchenko,  T. Tsuchimochi,  N. M. Tubman,  
 L. Vogt,  M. L. Vidal,  O. Vydrov,  M. A. Watson,  J. Wenzel,  
 M. de Wergifosse,  T. A. Wesolowski,  A. White,  J. Witte,  A. Yamada,  
 Jun Yang,  K. Yao,  S. Yeganeh,  S. R. Yost,  Zhi-Qiang You,  A. Zech,  
 Igor Ying Zhang,  Xing Zhang,  Yan Zhao,  Ying Zhu,  B. R. Brooks,  
 G. K. L. Chan,  C. J. Cramer,  M. S. Gordon,  W. J. Hehre,  A. Klamt,  
 M. W. Schmidt,  C. D. Sherrill,  D. G. Truhlar,  A. Aspuru-Guzik,  R. Baer,  
 A. T. Bell,  N. A. Besley,  Jeng-Da Chai,  R. A. DiStasio Jr.,  A. Dreuw,  
 B. D. Dunietz,  T. R. Furlani,  Chao-Ping Hsu,  Yousung Jung,  Jing Kong,  
 D. S. Lambrecht,  WanZhen Liang,  C. Ochsenfeld,  V. A. Rassolov,  
 L. V. Slipchenko,  J. E. Subotnik,  T. Van Voorhis,  J. M. Herbert,  
 A. I. Krylov,  P. M. W. Gill,  M. Head-Gordon

 Contributors to earlier versions of Q-Chem not listed above: 
 R. D. Adamson,  B. Austin,  J. Baker,  G. J. O. Beran,  K. Brandhorst,  
 S. T. Brown,  E. F. C. Byrd,  A. K. Chakraborty,  C.-L. Cheng,  
 Siu Hung Chien,  D. M. Chipman,  D. L. Crittenden,  H. Dachsel,  
 R. J. Doerksen,  A. D. Dutoi,  L. Fusti-Molnar,  W. A. Goddard III,  
 A. Golubeva-Zadorozhnaya,  S. R. Gwaltney,  G. Hawkins,  A. Heyden,  
 S. Hirata,  G. Kedziora,  F. J. Keil,  C. Kelley,  Jihan Kim,  R. A. King,  
 R. Z. Khaliullin,  P. P. Korambath,  W. Kurlancheek,  A. M. Lee,  M. S. Lee,  
 S. V. Levchenko,  Ching Yeh Lin,  D. Liotard,  R. C. Lochan,  I. Lotan,  
 P. E. Maslen,  N. Nair,  D. P. O'Neill,  D. Neuhauser,  E. Neuscamman,  
 C. M. Oana,  R. Olson,  B. Peters,  R. Peverati,  P. A. Pieniazek,  
 Y. M. Rhee,  J. Ritchie,  M. A. Rohrdanz,  E. Rosta,  N. J. Russ,  
 H. F. Schaefer III,  N. E. Schultz,  N. Shenvi,  A. C. Simmonett,  A. Sodt,  
 D. Stuck,  K. S. Thanthiriwatte,  V. Vanovschi,  Tao Wang,  A. Warshel,  
 C. F. Williams,  Q. Wu,  X. Xu,  W. Zhang

 Please cite Q-Chem as follows:
 Y. Shao et al., Mol. Phys. 113, 184-215 (2015)
 DOI: 10.1080/00268976.2014.952696

 Q-Chem 5.1.0 for Intel X86 EM64T Linux

 Parts of Q-Chem use Armadillo 8.300.2 (Tropical Shenanigans).
 http://arma.sourceforge.net/

 Q-Chem begins on Tue Feb 12 23:20:16 2019  

Host: cori07
0

     Scratch files written to /tmp/qchem10490//
 Jun2518 |scratch|qcdevops|jenkins|workspace|build_RNUM -1
Processing $rem in /global/common/cori/software/qchem/5.1/config/preferences.
 MEM_TOTAL  96000 

Checking the input file for inconsistencies... 	...done.

--------------------------------------------------------------
User input:
--------------------------------------------------------------
$molecule
0 1
C   1.8572876898   1.0856565167   0.7352910681
O   0.5074274054   0.8007640546   1.0621466180
C  -0.6946743711  -1.1803063184  -1.0992345673
C  -1.9213566342  -0.7094206114  -0.4389948233
O  -1.0718992537   0.2146231954  -1.1577141997
H   2.0055506062   2.1215443980   0.3751564363
H   2.4472700764   0.9623137864   1.6536744710
H   2.2749214578   0.4010626951  -0.0289220446
H  -0.7603365165  -1.7100121252  -2.0523247219
H   0.1838603972  -1.3904293864  -0.4856555433
H  -2.8930037716  -0.8896469801  -0.9050001287
H  -1.9219288780  -0.5835584392   0.6458594983
H  -0.0179062076   0.8785162147   0.2340359371
$end

$rem
JOBTYPE                   OPT
METHOD                    wB97X-D3
BASIS                     def2-TZVP
UNRESTRICTED              TRUE
SCF_ALGORITHM             DIIS
MAX_SCF_CYCLES            100
SCF_CONVERGENCE           8
SYM_IGNORE                TRUE
SYMMETRY                  FALSE
GEOM_OPT_MAX_CYCLES       100
GEOM_OPT_TOL_GRADIENT     100
GEOM_OPT_TOL_DISPLACEMENT 400
GEOM_OPT_TOL_ENERGY       33
WAVEFUNCTION_ANALYSIS     FALSE
$end

--------------------------------------------------------------
 Adding empirical dispersion correction 
 ----------------------------------------------------------------
 Doing -D3(0) with
 s6  =   1.00000
 s8  =   1.00000
 rs6 =   1.28100
 rs8 =   1.09400
 -D3 energy without 3body term =     -0.0024574083 hartrees
 ----------------------------------------------------------------
             Standard Nuclear Orientation (Angstroms)
    I     Atom           X                Y                Z
 ----------------------------------------------------------------
    1      C       1.8572876898     1.0856565167     0.7352910681
    2      O       0.5074274054     0.8007640546     1.0621466180
    3      C      -0.6946743711    -1.1803063184    -1.0992345673
    4      C      -1.9213566342    -0.7094206114    -0.4389948233
    5      O      -1.0718992537     0.2146231954    -1.1577141997
    6      H       2.0055506062     2.1215443980     0.3751564363
    7      H       2.4472700764     0.9623137864     1.6536744710
    8      H       2.2749214578     0.4010626951    -0.0289220446
    9      H      -0.7603365165    -1.7100121252    -2.0523247219
   10      H       0.1838603972    -1.3904293864    -0.4856555433
   11      H      -2.8930037716    -0.8896469801    -0.9050001287
   12      H      -1.9219288780    -0.5835584392     0.6458594983
   13      H      -0.0179062076     0.8785162147     0.2340359371
 ----------------------------------------------------------------
 Nuclear Repulsion Energy =   181.5490518681 hartrees
 There are       21 alpha and       21 beta electrons
 Requested basis set is def2-TZVP
 There are 87 shells and 203 basis functions

 Total QAlloc Memory Limit  96000 MB
 Mega-Array Size       188 MB
 MEM_STATIC part       192 MB
 A cutoff of  1.0D-11 yielded   3459 shell pairs
 There are     19107 function pairs (     24191 Cartesian)
 
 -------------------------------------------------------
 OpenMP Integral Computing Module                       
 Release: version 1.0, May 2013, Q-Chem Inc. Pittsburgh 
 -------------------------------------------------------
 Integral Job Info:
 Integral job number is                      11
 Integral operator is                         1
 short-range coefficients              19572800
 long-range coefficients              100000000
 Omega coefficients                         250
 if combine SR and LR in K                    1
 Integral screening is                        0
 Integral computing path is                   2
 max size of driver memory is            800000
 size of driver memory is                776718
 size of scratch memory is              4473992
 max col of scratch BK array              10000
 max len of scratch array in speh3          662
 max len of scratch index in speh4           32
 max int batch size is                      520
 min int batch size is                       52
 fixed nKL is                                52
 max L of basis functions is                  3
 order of int derivative is                   0
 number of shells is                         87
 number of basis is                         228
 number of cartesian basis is               228
 number of contracted shell pairs          3459
 number of primitive shell pairs           7758
 maxK2 (contraction) of shell pair           36
 max number of K2 of shell pair               1
 max number of CS2 of shell pair            565
 max number of PS2 of shell pair            978
 mem total for path MDJ                  562830
 -------------------------------------------------------
 Smallest overlap matrix eigenvalue = 3.99E-04

 Scale SEOQF with 1.000000e-01/1.000000e-01/1.000000e-01

 Standard Electronic Orientation quadrupole field applied
 Nucleus-field energy     =     0.0000000013 hartrees
 Guess from superposition of atomic densities
 Warning:  Energy on first SCF cycle will be non-variational
 SAD guess density has 42.000000 electrons

 -----------------------------------------------------------------------
  General SCF calculation program by
  Eric Jon Sundstrom, Paul Horn, Yuezhi Mao, Dmitri Zuev, Alec White,
  David Stuck, Shaama M.S., Shane Yost, Joonho Lee, David Small,
  Daniel Levine, Susi Lehtola, Hugh Burton, Evgeny Epifanovsky
 -----------------------------------------------------------------------
 Exchange:     0.1957 Hartree-Fock + 1.0000 wB97X-D3 + LR-HF
 Correlation:  1.0000 wB97X-D3
 Using SG-2 standard quadrature grid
 Dispersion:   Grimme D3
 using 16 threads for integral computing
 -------------------------------------------------------
 OpenMP Integral computing Module                
 Release: version 1.0, May 2013, Q-Chem Inc. Pittsburgh 
 -------------------------------------------------------
 using 16 threads for integral computing
 -------------------------------------------------------
 OpenMP Integral computing Module                
 Release: version 1.0, May 2013, Q-Chem Inc. Pittsburgh 
 -------------------------------------------------------
 -------------------------------------------------------
 OpenMP BLAS3 based DFT computing Module                
 Release: version 1.0, May 2013, Q-Chem Inc. Pittsburgh 
 -------------------------------------------------------
 A unrestricted SCF calculation will be
 performed using DIIS
 SCF converges when DIIS error is below 1.0e-08
 ---------------------------------------
  Cycle       Energy         DIIS error
 ---------------------------------------
    1    -270.2980188991      1.85e-02  
    2    -269.4762622847      2.14e-03  
    3    -269.4776795660      2.33e-03  
    4    -269.5499038438      2.00e-04  
    5    -269.5503904480      9.97e-05  
    6    -269.5505225115      4.05e-05  
    7    -269.5505449759      7.29e-06  
    8    -269.5505459696      1.53e-06  
    9    -269.5505460399      2.64e-07  
   10    -269.5505460436      9.14e-08  
   11    -269.5505460440      3.19e-08  
   12    -269.5505460440      8.38e-09  Convergence criterion met
 ---------------------------------------
 SCF time:   CPU 324.79s  wall 26.00s 
<S^2> =         -0.000000000
 SCF   energy in the final basis set =     -269.5505460440
 Total energy in the final basis set =     -269.5505460440
 No wavefunction analysis requested
 Calculating analytic gradient of the SCF energy
 Gradient of SCF Energy
            1           2           3           4           5           6
    1  -0.0028711  -0.0014755   0.0076791  -0.0087222   0.0037793   0.0029268
    2  -0.0005082  -0.0039784  -0.0084492  -0.0025884   0.0183475   0.0058155
    3  -0.0024730   0.0160699  -0.0010911   0.0067178  -0.0059243  -0.0023372
            7           8           9          10          11          12
    1   0.0025732   0.0042978  -0.0001039   0.0038877  -0.0051786  -0.0005342
    2  -0.0006478  -0.0028629  -0.0032981  -0.0014995  -0.0013889  -0.0001535
    3   0.0044048  -0.0042642  -0.0043838   0.0025240  -0.0017020   0.0048914
           13
    1  -0.0062584
    2   0.0012122
    3  -0.0124323
 Max gradient component =       1.835E-02
 RMS gradient           =       5.906E-03
 Gradient time:  CPU 64.70 s  wall 6.79 s
 Geometry Optimization Parameters
   NAtoms,    NIC,     NZ,  NCons,   NDum,   NFix, NCnnct, MaxDiis
       13      86       0       0       0       0       0       0


** GEOMETRY OPTIMIZATION IN DELOCALIZED INTERNAL COORDINATES **
   Searching for a Minimum

   Optimization Cycle:   1

                       Coordinates (Angstroms)
     ATOM                X               Y               Z
      1  C         1.8572876898    1.0856565167    0.7352910681
      2  O         0.5074274054    0.8007640546    1.0621466180
      3  C        -0.6946743711   -1.1803063184   -1.0992345673
      4  C        -1.9213566342   -0.7094206114   -0.4389948233
      5  O        -1.0718992537    0.2146231954   -1.1577141997
      6  H         2.0055506062    2.1215443980    0.3751564363
      7  H         2.4472700764    0.9623137864    1.6536744710
      8  H         2.2749214578    0.4010626951   -0.0289220446
      9  H        -0.7603365165   -1.7100121252   -2.0523247219
     10  H         0.1838603972   -1.3904293864   -0.4856555433
     11  H        -2.8930037716   -0.8896469801   -0.9050001287
     12  H        -1.9219288780   -0.5835584392    0.6458594983
     13  H        -0.0179062076    0.8785162147    0.2340359371
   Point Group: c1    Number of degrees of freedom:    33


   Energy is   -269.550546044


 Attempting to Generate Delocalized Internal Coordinates

 33 Hessian modes will be used to form the next step
  Hessian Eigenvalues:
     0.002000    0.010443    0.013292    0.022009    0.029267    0.029931
     0.029972    0.036982    0.054044    0.083730    0.084795    0.096800
     0.103691    0.105244    0.106865    0.109963    0.160000    0.160000
     0.160000    0.160000    0.160000    0.291881    0.314839    0.328395
     0.329540    0.338476    0.345157    0.345397    0.345675    0.345830
     0.378433    0.427953    0.506610

 Minimum Search - Taking Simple RFO Step
 Searching for Lamda that Minimizes Along All modes
 Value Taken    Lamda =  -0.00239452
 Step Taken.  Stepsize is  0.123869

                             Maximum     Tolerance    Cnvgd?
         Gradient           0.012998      0.000100      NO
         Displacement       0.060246      0.000400      NO
         Energy change     *********      0.000000      NO


 New Cartesian Coordinates Obtained by Inverse Iteration

 Displacement from previous Coordinates is:  0.376372
 Adding empirical dispersion correction 
 ----------------------------------------------------------------
 Doing -D3(0) with
 s6  =   1.00000
 s8  =   1.00000
 rs6 =   1.28100
 rs8 =   1.09400
 -D3 energy without 3body term =     -0.0023918193 hartrees
 ----------------------------------------------------------------
             Standard Nuclear Orientation (Angstroms)
    I     Atom           X                Y                Z
 ----------------------------------------------------------------
    1      C       1.8785442191     1.1149159265     0.7503942332
    2      O       0.5494943828     0.7601159263     1.0503356624
    3      C      -0.7289463853    -1.2160914342    -1.1027758073
    4      C      -1.9261689650    -0.7027365192    -0.4508928259
    5      O      -1.0501783430     0.1775785412    -1.1620863623
    6      H       1.9609577501     2.1572830577     0.4213575724
    7      H       2.4704155783     0.9956372609     1.6585334013
    8      H       2.3117010283     0.4742251987    -0.0284909124
    9      H      -0.8108793201    -1.7339358810    -2.0516827126
   10      H       0.1361321393    -1.4527216817    -0.4927722586
   11      H      -2.8948443934    -0.8398631118    -0.9179807831
   12      H      -1.9230511886    -0.5674456476     0.6254082494
   13      H       0.0220354978     0.8341453646     0.2389705435
 ----------------------------------------------------------------
 Nuclear Repulsion Energy =   182.0957432270 hartrees
 There are       21 alpha and       21 beta electrons
 Applying Cartesian multipole field
    Component          Value
    ---------          -----
     (2,0,0)        1.00000E-11
     (0,2,0)        2.00000E-11
     (0,0,2)       -3.00000E-11
 Nucleus-field energy     =     0.0000000014 hartrees
 Requested basis set is def2-TZVP
 There are 87 shells and 203 basis functions
 A cutoff of  1.0D-11 yielded   3443 shell pairs
 There are     19005 function pairs (     24064 Cartesian)
 Smallest overlap matrix eigenvalue = 3.63E-04
 Guess MOs from SCF MO coefficient file
 Reading MOs from coefficient file
 Reading MOs from coefficient file

 -----------------------------------------------------------------------
  General SCF calculation program by
  Eric Jon Sundstrom, Paul Horn, Yuezhi Mao, Dmitri Zuev, Alec White,
  David Stuck, Shaama M.S., Shane Yost, Joonho Lee, David Small,
  Daniel Levine, Susi Lehtola, Hugh Burton, Evgeny Epifanovsky
 -----------------------------------------------------------------------
 Exchange:     0.1957 Hartree-Fock + 1.0000 wB97X-D3 + LR-HF
 Correlation:  1.0000 wB97X-D3
 Using SG-2 standard quadrature grid
 Dispersion:   Grimme D3
 using 16 threads for integral computing
 -------------------------------------------------------
 OpenMP Integral computing Module                
 Release: version 1.0, May 2013, Q-Chem Inc. Pittsburgh 
 -------------------------------------------------------
 using 16 threads for integral computing
 -------------------------------------------------------
 OpenMP Integral computing Module                
 Release: version 1.0, May 2013, Q-Chem Inc. Pittsburgh 
 -------------------------------------------------------
 -------------------------------------------------------
 OpenMP BLAS3 based DFT computing Module                
 Release: version 1.0, May 2013, Q-Chem Inc. Pittsburgh 
 -------------------------------------------------------
 A unrestricted SCF calculation will be
 performed using DIIS
 SCF converges when DIIS error is below 1.0e-08
 ---------------------------------------
  Cycle       Energy         DIIS error
 ---------------------------------------
    1    -269.5861325311      5.37e-04  
    2    -269.5516365169      8.62e-05  
    3    -269.5518371040      5.06e-05  
    4    -269.5518811855      1.45e-05  
    5    -269.5518859990      6.83e-06  
    6    -269.5518867624      1.57e-06  
    7    -269.5518868151      3.67e-07  
    8    -269.5518868193      1.92e-07  
    9    -269.5518868202      6.66e-08  
   10    -269.5518868203      2.27e-08  
   11    -269.5518868203      4.62e-09  Convergence criterion met
 ---------------------------------------
 SCF time:   CPU 309.88s  wall 22.00s 
<S^2> =         -0.000000000
 SCF   energy in the final basis set =     -269.5518868203
 Total energy in the final basis set =     -269.5518868203
 No wavefunction analysis requested
 Calculating analytic gradient of the SCF energy
 Gradient of SCF Energy
            1           2           3           4           5           6
    1   0.0003323   0.0009828   0.0011762  -0.0020480   0.0012897  -0.0003468
    2  -0.0000639  -0.0006182  -0.0038241  -0.0027806   0.0058451  -0.0001077
    3   0.0007054   0.0014882   0.0008821   0.0021384  -0.0017922  -0.0001942
            7           8           9          10          11          12
    1   0.0003233  -0.0003096   0.0000219  -0.0002853   0.0004192   0.0002063
    2   0.0000242  -0.0000479   0.0004995   0.0004060   0.0002866   0.0003855
    3   0.0000368  -0.0002796   0.0000828  -0.0000913  -0.0001045  -0.0003732
           13
    1  -0.0017619
    2  -0.0000045
    3  -0.0024987
 Max gradient component =       5.845E-03
 RMS gradient           =       1.497E-03
 Gradient time:  CPU 64.82 s  wall 4.85 s
 Geometry Optimization Parameters
   NAtoms,    NIC,     NZ,  NCons,   NDum,   NFix, NCnnct, MaxDiis
       13      86       0       0       0       0       0       0

 Cartesian Hessian Update
 Hessian Updated using BFGS Update


** GEOMETRY OPTIMIZATION IN DELOCALIZED INTERNAL COORDINATES **
   Searching for a Minimum

   Optimization Cycle:   2

                       Coordinates (Angstroms)
     ATOM                X               Y               Z
      1  C         1.8785442191    1.1149159265    0.7503942332
      2  O         0.5494943828    0.7601159263    1.0503356624
      3  C        -0.7289463853   -1.2160914342   -1.1027758073
      4  C        -1.9261689650   -0.7027365192   -0.4508928259
      5  O        -1.0501783430    0.1775785412   -1.1620863623
      6  H         1.9609577501    2.1572830577    0.4213575724
      7  H         2.4704155783    0.9956372609    1.6585334013
      8  H         2.3117010283    0.4742251987   -0.0284909124
      9  H        -0.8108793201   -1.7339358810   -2.0516827126
     10  H         0.1361321393   -1.4527216817   -0.4927722586
     11  H        -2.8948443934   -0.8398631118   -0.9179807831
     12  H        -1.9230511886   -0.5674456476    0.6254082494
     13  H         0.0220354978    0.8341453646    0.2389705435
   Point Group: c1    Number of degrees of freedom:    33


   Energy is   -269.551886820

 Hessian Updated using BFGS Update

 30 Hessian modes will be used to form the next step
  Hessian Eigenvalues:
     0.002015    0.010335    0.013291    0.021916    0.029163    0.029932
     0.030433    0.036893    0.052269    0.082417    0.084786    0.097963
     0.103694    0.105245    0.106934    0.108736    0.156365    0.164889
     0.289178    0.314829    0.328145    0.330720    0.335869    0.343747
     0.345259    0.345584    0.345808    0.363405    0.434495    0.496359

 Minimum Search - Taking Simple RFO Step
 Searching for Lamda that Minimizes Along All modes
 Value Taken    Lamda =  -0.00020581
 Step Taken.  Stepsize is  0.064010

                             Maximum     Tolerance    Cnvgd?
         Gradient           0.002908      0.000100      NO
         Displacement       0.043709      0.000400      NO
         Energy change     -0.001341      0.000000      NO


 New Cartesian Coordinates Obtained by Inverse Iteration

 Displacement from previous Coordinates is:  0.240671
 Adding empirical dispersion correction 
 ----------------------------------------------------------------
 Doing -D3(0) with
 s6  =   1.00000
 s8  =   1.00000
 rs6 =   1.28100
 rs8 =   1.09400
 -D3 energy without 3body term =     -0.0023588827 hartrees
 ----------------------------------------------------------------
             Standard Nuclear Orientation (Angstroms)
    I     Atom           X                Y                Z
 ----------------------------------------------------------------
    1      C       1.8948149030     1.1377718729     0.7607536370
    2      O       0.5730689485     0.7494326578     1.0486377145
    3      C      -0.7529642283    -1.2380706024    -1.1149169522
    4      C      -1.9345255161    -0.6999162470    -0.4576350694
    5      O      -1.0428837770     0.1570444625    -1.1670293501
    6      H       1.9582715295     2.1842583414     0.4427500388
    7      H       2.4776305681     1.0250534737     1.6744714541
    8      H       2.3526121561     0.5128094500    -0.0155509430
    9      H      -0.8523583388    -1.7538293253    -2.0632551945
   10      H       0.1079435917    -1.4990413264    -0.5087286255
   11      H      -2.9076420226    -0.8172842848    -0.9209548914
   12      H      -1.9251584275    -0.5728136195     0.6196737958
   13      H       0.0464026134     0.8156921474     0.2401023859
 ----------------------------------------------------------------
 Nuclear Repulsion Energy =   181.7035376151 hartrees
 There are       21 alpha and       21 beta electrons
 Applying Cartesian multipole field
    Component          Value
    ---------          -----
     (2,0,0)        1.00000E-11
     (0,2,0)        2.00000E-11
     (0,0,2)       -3.00000E-11
 Nucleus-field energy     =     0.0000000014 hartrees
 Requested basis set is def2-TZVP
 There are 87 shells and 203 basis functions
 A cutoff of  1.0D-11 yielded   3430 shell pairs
 There are     18830 function pairs (     23804 Cartesian)
 Smallest overlap matrix eigenvalue = 3.58E-04
 Guess MOs from SCF MO coefficient file
 Reading MOs from coefficient file
 Reading MOs from coefficient file

 -----------------------------------------------------------------------
  General SCF calculation program by
  Eric Jon Sundstrom, Paul Horn, Yuezhi Mao, Dmitri Zuev, Alec White,
  David Stuck, Shaama M.S., Shane Yost, Joonho Lee, David Small,
  Daniel Levine, Susi Lehtola, Hugh Burton, Evgeny Epifanovsky
 -----------------------------------------------------------------------
 Exchange:     0.1957 Hartree-Fock + 1.0000 wB97X-D3 + LR-HF
 Correlation:  1.0000 wB97X-D3
 Using SG-2 standard quadrature grid
 Dispersion:   Grimme D3
 using 16 threads for integral computing
 -------------------------------------------------------
 OpenMP Integral computing Module                
 Release: version 1.0, May 2013, Q-Chem Inc. Pittsburgh 
 -------------------------------------------------------
 using 16 threads for integral computing
 -------------------------------------------------------
 OpenMP Integral computing Module                
 Release: version 1.0, May 2013, Q-Chem Inc. Pittsburgh 
 -------------------------------------------------------
 -------------------------------------------------------
 OpenMP BLAS3 based DFT computing Module                
 Release: version 1.0, May 2013, Q-Chem Inc. Pittsburgh 
 -------------------------------------------------------
 A unrestricted SCF calculation will be
 performed using DIIS
 SCF converges when DIIS error is below 1.0e-08
 ---------------------------------------
  Cycle       Energy         DIIS error
 ---------------------------------------
    1    -269.5565276126      2.65e-04  
    2    -269.5519623736      4.06e-05  
    3    -269.5520117249      2.74e-05  
    4    -269.5520230193      1.12e-05  
    5    -269.5520252597      3.39e-06  
    6    -269.5520254912      8.85e-07  
    7    -269.5520255103      2.01e-07  
    8    -269.5520255122      1.08e-07  
    9    -269.5520255124      2.86e-08  
   10    -269.5520255125      9.86e-09  Convergence criterion met
 ---------------------------------------
 SCF time:   CPU 279.19s  wall 21.00s 
<S^2> =         -0.000000000
 SCF   energy in the final basis set =     -269.5520255125
 Total energy in the final basis set =     -269.5520255125
 No wavefunction analysis requested
 Calculating analytic gradient of the SCF energy
 Gradient of SCF Energy
            1           2           3           4           5           6
    1   0.0002833   0.0002605  -0.0001132   0.0001096   0.0003495  -0.0000487
    2   0.0001443  -0.0001193  -0.0008066  -0.0009873   0.0015006  -0.0004197
    3  -0.0000188  -0.0005289   0.0008271   0.0003192  -0.0005756   0.0001565
            7           8           9          10          11          12
    1  -0.0003202  -0.0001729  -0.0001429  -0.0004098   0.0005241   0.0002521
    2  -0.0000101   0.0001493   0.0004270   0.0002926   0.0000651   0.0000528
    3  -0.0003881   0.0002411   0.0003070  -0.0000126  -0.0000597  -0.0004111
           13
    1  -0.0005715
    2  -0.0002887
    3   0.0001439
 Max gradient component =       1.501E-03
 RMS gradient           =       4.435E-04
 Gradient time:  CPU 63.68 s  wall 4.82 s
 Geometry Optimization Parameters
   NAtoms,    NIC,     NZ,  NCons,   NDum,   NFix, NCnnct, MaxDiis
       13      86       0       0       0       0       0       0

 Cartesian Hessian Update
 Hessian Updated using BFGS Update


** GEOMETRY OPTIMIZATION IN DELOCALIZED INTERNAL COORDINATES **
   Searching for a Minimum

   Optimization Cycle:   3

                       Coordinates (Angstroms)
     ATOM                X               Y               Z
      1  C         1.8948149030    1.1377718729    0.7607536370
      2  O         0.5730689485    0.7494326578    1.0486377145
      3  C        -0.7529642283   -1.2380706024   -1.1149169522
      4  C        -1.9345255161   -0.6999162470   -0.4576350694
      5  O        -1.0428837770    0.1570444625   -1.1670293501
      6  H         1.9582715295    2.1842583414    0.4427500388
      7  H         2.4776305681    1.0250534737    1.6744714541
      8  H         2.3526121561    0.5128094500   -0.0155509430
      9  H        -0.8523583388   -1.7538293253   -2.0632551945
     10  H         0.1079435917   -1.4990413264   -0.5087286255
     11  H        -2.9076420226   -0.8172842848   -0.9209548914
     12  H        -1.9251584275   -0.5728136195    0.6196737958
     13  H         0.0464026134    0.8156921474    0.2401023859
   Point Group: c1    Number of degrees of freedom:    33


   Energy is   -269.552025512

 Hessian Updated using BFGS Update

 31 Hessian modes will be used to form the next step
  Hessian Eigenvalues:
     0.002019    0.008864    0.013266    0.020614    0.028145    0.029930
     0.030669    0.035821    0.042661    0.076621    0.084785    0.100537
     0.103546    0.104117    0.105250    0.107330    0.154331    0.161029
     0.167540    0.277480    0.314838    0.328757    0.331936    0.339609
     0.345259    0.345543    0.345769    0.350499    0.391117    0.433859
     0.523083

 Minimum Search - Taking Simple RFO Step
 Searching for Lamda that Minimizes Along All modes
 Value Taken    Lamda =  -0.00009733
 Step Taken.  Stepsize is  0.078933

                             Maximum     Tolerance    Cnvgd?
         Gradient           0.001202      0.000100      NO
         Displacement       0.044824      0.000400      NO
         Energy change     -0.000139      0.000000      NO


 New Cartesian Coordinates Obtained by Inverse Iteration

 Displacement from previous Coordinates is:  0.234732
 Adding empirical dispersion correction 
 ----------------------------------------------------------------
 Doing -D3(0) with
 s6  =   1.00000
 s8  =   1.00000
 rs6 =   1.28100
 rs8 =   1.09400
 -D3 energy without 3body term =     -0.0023285646 hartrees
 ----------------------------------------------------------------
             Standard Nuclear Orientation (Angstroms)
    I     Atom           X                Y                Z
 ----------------------------------------------------------------
    1      C       1.9107045411     1.1591166583     0.7748968289
    2      O       0.5938862867     0.7465077319     1.0509694974
    3      C      -0.7764386491    -1.2602633688    -1.1311970987
    4      C      -1.9426674354    -0.7000055708    -0.4620610093
    5      O      -1.0378779907     0.1374979039    -1.1718292731
    6      H       1.9568700910     2.2057160722     0.4526911969
    7      H       2.4865029212     1.0626512677     1.6955775113
    8      H       2.3891661982     0.5397488481     0.0064769546
    9      H      -0.8935732720    -1.7708692946    -2.0810859211
   10      H       0.0840738340    -1.5446410184    -0.5338774526
   11      H      -2.9222251133    -0.7955477010    -0.9183714729
   12      H      -1.9252457357    -0.5804217639     0.6166272049
   13      H       0.0720363242     0.8016172356     0.2395010337
 ----------------------------------------------------------------
 Nuclear Repulsion Energy =   181.1101838372 hartrees
 There are       21 alpha and       21 beta electrons
 Applying Cartesian multipole field
    Component          Value
    ---------          -----
     (2,0,0)        1.00000E-11
     (0,2,0)        2.00000E-11
     (0,0,2)       -3.00000E-11
 Nucleus-field energy     =     0.0000000015 hartrees
 Requested basis set is def2-TZVP
 There are 87 shells and 203 basis functions
 A cutoff of  1.0D-11 yielded   3422 shell pairs
 There are     18782 function pairs (     23742 Cartesian)
 Smallest overlap matrix eigenvalue = 3.61E-04
 Guess MOs from SCF MO coefficient file
 Reading MOs from coefficient file
 Reading MOs from coefficient file

 -----------------------------------------------------------------------
  General SCF calculation program by
  Eric Jon Sundstrom, Paul Horn, Yuezhi Mao, Dmitri Zuev, Alec White,
  David Stuck, Shaama M.S., Shane Yost, Joonho Lee, David Small,
  Daniel Levine, Susi Lehtola, Hugh Burton, Evgeny Epifanovsky
 -----------------------------------------------------------------------
 Exchange:     0.1957 Hartree-Fock + 1.0000 wB97X-D3 + LR-HF
 Correlation:  1.0000 wB97X-D3
 Using SG-2 standard quadrature grid
 Dispersion:   Grimme D3
 using 16 threads for integral computing
 -------------------------------------------------------
 OpenMP Integral computing Module                
 Release: version 1.0, May 2013, Q-Chem Inc. Pittsburgh 
 -------------------------------------------------------
 using 16 threads for integral computing
 -------------------------------------------------------
 OpenMP Integral computing Module                
 Release: version 1.0, May 2013, Q-Chem Inc. Pittsburgh 
 -------------------------------------------------------
 -------------------------------------------------------
 OpenMP BLAS3 based DFT computing Module                
 Release: version 1.0, May 2013, Q-Chem Inc. Pittsburgh 
 -------------------------------------------------------
 A unrestricted SCF calculation will be
 performed using DIIS
 SCF converges when DIIS error is below 1.0e-08
 ---------------------------------------
  Cycle       Energy         DIIS error
 ---------------------------------------
    1    -269.5517897171      2.34e-04  
    2    -269.5520352365      3.44e-05  
    3    -269.5520749333      2.25e-05  
    4    -269.5520826258      9.91e-06  
    5    -269.5520844627      2.68e-06  
    6    -269.5520846120      7.73e-07  
    7    -269.5520846278      2.02e-07  
    8    -269.5520846296      1.14e-07  
    9    -269.5520846298      2.35e-08  
   10    -269.5520846299      7.04e-09  Convergence criterion met
 ---------------------------------------
 SCF time:   CPU 277.56s  wall 20.00s 
<S^2> =          0.000000000
 SCF   energy in the final basis set =     -269.5520846299
 Total energy in the final basis set =     -269.5520846299
 No wavefunction analysis requested
 Calculating analytic gradient of the SCF energy
 Gradient of SCF Energy
            1           2           3           4           5           6
    1   0.0000425   0.0002228  -0.0000905   0.0006985  -0.0003410  -0.0000428
    2  -0.0001173   0.0002331   0.0007035   0.0004620  -0.0010847  -0.0001533
    3   0.0000287  -0.0008668   0.0002452  -0.0004197   0.0001113   0.0001087
            7           8           9          10          11          12
    1  -0.0000281  -0.0001030  -0.0000755  -0.0000664   0.0000829   0.0000326
    2   0.0000053   0.0000851   0.0000823   0.0000722  -0.0000166  -0.0000067
    3  -0.0001085   0.0001332   0.0000633   0.0000386  -0.0000038  -0.0000515
           13
    1  -0.0003321
    2  -0.0002650
    3   0.0007214
 Max gradient component =       1.085E-03
 RMS gradient           =       3.375E-04
 Gradient time:  CPU 63.53 s  wall 4.78 s
 Geometry Optimization Parameters
   NAtoms,    NIC,     NZ,  NCons,   NDum,   NFix, NCnnct, MaxDiis
       13      86       0       0       0       0       0       0

 Cartesian Hessian Update
 Hessian Updated using BFGS Update


** GEOMETRY OPTIMIZATION IN DELOCALIZED INTERNAL COORDINATES **
   Searching for a Minimum

   Optimization Cycle:   4

                       Coordinates (Angstroms)
     ATOM                X               Y               Z
      1  C         1.9107045411    1.1591166583    0.7748968289
      2  O         0.5938862867    0.7465077319    1.0509694974
      3  C        -0.7764386491   -1.2602633688   -1.1311970987
      4  C        -1.9426674354   -0.7000055708   -0.4620610093
      5  O        -1.0378779907    0.1374979039   -1.1718292731
      6  H         1.9568700910    2.2057160722    0.4526911969
      7  H         2.4865029212    1.0626512677    1.6955775113
      8  H         2.3891661982    0.5397488481    0.0064769546
      9  H        -0.8935732720   -1.7708692946   -2.0810859211
     10  H         0.0840738340   -1.5446410184   -0.5338774526
     11  H        -2.9222251133   -0.7955477010   -0.9183714729
     12  H        -1.9252457357   -0.5804217639    0.6166272049
     13  H         0.0720363242    0.8016172356    0.2395010337
   Point Group: c1    Number of degrees of freedom:    33


   Energy is   -269.552084630

 Hessian Updated using BFGS Update

 32 Hessian modes will be used to form the next step
  Hessian Eigenvalues:
     0.001890    0.007163    0.013189    0.020374    0.027780    0.029928
     0.030748    0.034985    0.042147    0.074488    0.084785    0.100532
     0.102945    0.103739    0.105299    0.107350    0.155739    0.160382
     0.161391    0.167693    0.296395    0.314846    0.328769    0.331568
     0.340619    0.345259    0.345545    0.345773    0.359152    0.392747
     0.432276    0.518571

 Minimum Search - Taking Simple RFO Step
 Searching for Lamda that Minimizes Along All modes
 Value Taken    Lamda =  -0.00002409
 Step Taken.  Stepsize is  0.066920

                             Maximum     Tolerance    Cnvgd?
         Gradient           0.000670      0.000100      NO
         Displacement       0.055222      0.000400      NO
         Energy change     -0.000059      0.000000      NO


 New Cartesian Coordinates Obtained by Inverse Iteration

 Displacement from previous Coordinates is:  0.116687
 Adding empirical dispersion correction 
 ----------------------------------------------------------------
 Doing -D3(0) with
 s6  =   1.00000
 s8  =   1.00000
 rs6 =   1.28100
 rs8 =   1.09400
 -D3 energy without 3body term =     -0.0023161166 hartrees
 ----------------------------------------------------------------
             Standard Nuclear Orientation (Angstroms)
    I     Atom           X                Y                Z
 ----------------------------------------------------------------
    1      C       1.9169263107     1.1675741045     0.7823272211
    2      O       0.5993968597     0.7528299793     1.0526480407
    3      C      -0.7869171089    -1.2682907969    -1.1418274933
    4      C      -1.9449659935    -0.7028463021    -0.4615166915
    5      O      -1.0383031241     0.1315346347    -1.1729694035
    6      H       1.9620391508     2.2101853751     0.4463151557
    7      H       2.4844579401     1.0860062966     1.7097241938
    8      H       2.4053742480     0.5398522966     0.0267625954
    9      H      -0.9139373992    -1.7738172778    -2.0933970753
   10      H       0.0757317037    -1.5631165125    -0.5524140104
   11      H      -2.9284940567    -0.7892038990    -0.9115175335
   12      H      -1.9202602533    -0.5895078632     0.6178487596
   13      H       0.0841637229     0.7999069649     0.2363342412
 ----------------------------------------------------------------
 Nuclear Repulsion Energy =   180.7899316013 hartrees
 There are       21 alpha and       21 beta electrons
 Applying Cartesian multipole field
    Component          Value
    ---------          -----
     (2,0,0)        1.00000E-11
     (0,2,0)        2.00000E-11
     (0,0,2)       -3.00000E-11
 Nucleus-field energy     =     0.0000000015 hartrees
 Requested basis set is def2-TZVP
 There are 87 shells and 203 basis functions
 A cutoff of  1.0D-11 yielded   3420 shell pairs
 There are     18770 function pairs (     23730 Cartesian)
 Smallest overlap matrix eigenvalue = 3.63E-04
 Guess MOs from SCF MO coefficient file
 Reading MOs from coefficient file
 Reading MOs from coefficient file

 -----------------------------------------------------------------------
  General SCF calculation program by
  Eric Jon Sundstrom, Paul Horn, Yuezhi Mao, Dmitri Zuev, Alec White,
  David Stuck, Shaama M.S., Shane Yost, Joonho Lee, David Small,
  Daniel Levine, Susi Lehtola, Hugh Burton, Evgeny Epifanovsky
 -----------------------------------------------------------------------
 Exchange:     0.1957 Hartree-Fock + 1.0000 wB97X-D3 + LR-HF
 Correlation:  1.0000 wB97X-D3
 Using SG-2 standard quadrature grid
 Dispersion:   Grimme D3
 using 16 threads for integral computing
 -------------------------------------------------------
 OpenMP Integral computing Module                
 Release: version 1.0, May 2013, Q-Chem Inc. Pittsburgh 
 -------------------------------------------------------
 using 16 threads for integral computing
 -------------------------------------------------------
 OpenMP Integral computing Module                
 Release: version 1.0, May 2013, Q-Chem Inc. Pittsburgh 
 -------------------------------------------------------
 -------------------------------------------------------
 OpenMP BLAS3 based DFT computing Module                
 Release: version 1.0, May 2013, Q-Chem Inc. Pittsburgh 
 -------------------------------------------------------
 A unrestricted SCF calculation will be
 performed using DIIS
 SCF converges when DIIS error is below 1.0e-08
 ---------------------------------------
  Cycle       Energy         DIIS error
 ---------------------------------------
    1    -269.5507801953      1.08e-04  
    2    -269.5520907228      1.53e-05  
    3    -269.5521003980      7.50e-06  
    4    -269.5521013005      5.09e-06  
    5    -269.5521017555      8.74e-07  
    6    -269.5521017754      3.01e-07  
    7    -269.5521017785      9.15e-08  
    8    -269.5521017788      4.71e-08  
    9    -269.5521017788      1.05e-08  
   10    -269.5521017788      3.03e-09  Convergence criterion met
 ---------------------------------------
 SCF time:   CPU 276.58s  wall 20.00s 
<S^2> =          0.000000000
 SCF   energy in the final basis set =     -269.5521017788
 Total energy in the final basis set =     -269.5521017788
 No wavefunction analysis requested
 Calculating analytic gradient of the SCF energy
 Gradient of SCF Energy
            1           2           3           4           5           6
    1  -0.0001226   0.0002048   0.0001120   0.0004178  -0.0003087   0.0000385
    2  -0.0001480   0.0001673   0.0005818   0.0006055  -0.0009240   0.0000292
    3  -0.0001117  -0.0002608  -0.0000286  -0.0002783  -0.0000019   0.0000444
            7           8           9          10          11          12
    1  -0.0000427  -0.0000014  -0.0000275   0.0000161  -0.0000698  -0.0000881
    2  -0.0000215   0.0000359  -0.0000636  -0.0000225  -0.0000541  -0.0000596
    3   0.0000037   0.0000130   0.0000006   0.0000343   0.0000551   0.0000563
           13
    1  -0.0001282
    2  -0.0001265
    3   0.0004739
 Max gradient component =       9.240E-04
 RMS gradient           =       2.483E-04
 Gradient time:  CPU 63.37 s  wall 4.73 s
 Geometry Optimization Parameters
   NAtoms,    NIC,     NZ,  NCons,   NDum,   NFix, NCnnct, MaxDiis
       13      86       0       0       0       0       0       0

 Cartesian Hessian Update
 Hessian Updated using BFGS Update


** GEOMETRY OPTIMIZATION IN DELOCALIZED INTERNAL COORDINATES **
   Searching for a Minimum

   Optimization Cycle:   5

                       Coordinates (Angstroms)
     ATOM                X               Y               Z
      1  C         1.9169263107    1.1675741045    0.7823272211
      2  O         0.5993968597    0.7528299793    1.0526480407
      3  C        -0.7869171089   -1.2682907969   -1.1418274933
      4  C        -1.9449659935   -0.7028463021   -0.4615166915
      5  O        -1.0383031241    0.1315346347   -1.1729694035
      6  H         1.9620391508    2.2101853751    0.4463151557
      7  H         2.4844579401    1.0860062966    1.7097241938
      8  H         2.4053742480    0.5398522966    0.0267625954
      9  H        -0.9139373992   -1.7738172778   -2.0933970753
     10  H         0.0757317037   -1.5631165125   -0.5524140104
     11  H        -2.9284940567   -0.7892038990   -0.9115175335
     12  H        -1.9202602533   -0.5895078632    0.6178487596
     13  H         0.0841637229    0.7999069649    0.2363342412
   Point Group: c1    Number of degrees of freedom:    33


   Energy is   -269.552101779

 Hessian Updated using BFGS Update

 33 Hessian modes will be used to form the next step
  Hessian Eigenvalues:
     0.001297    0.005772    0.012997    0.020771    0.027952    0.029921
     0.030987    0.035262    0.045535    0.072129    0.084802    0.100917
     0.102288    0.103702    0.105389    0.108070    0.155896    0.160000
     0.160261    0.163917    0.171350    0.285000    0.314874    0.328691
     0.332844    0.340547    0.345261    0.345548    0.345773    0.354704
     0.375151    0.431589    0.515008

 Minimum Search - Taking Simple RFO Step
 Searching for Lamda that Minimizes Along All modes
 Value Taken    Lamda =  -0.00001641
 Step Taken.  Stepsize is  0.087848

                             Maximum     Tolerance    Cnvgd?
         Gradient           0.000393      0.000100      NO
         Displacement       0.075120      0.000400      NO
         Energy change     -0.000017      0.000000      NO


 New Cartesian Coordinates Obtained by Inverse Iteration

 Displacement from previous Coordinates is:  0.133528
 Adding empirical dispersion correction 
 ----------------------------------------------------------------
 Doing -D3(0) with
 s6  =   1.00000
 s8  =   1.00000
 rs6 =   1.28100
 rs8 =   1.09400
 -D3 energy without 3body term =     -0.0023044759 hartrees
 ----------------------------------------------------------------
             Standard Nuclear Orientation (Angstroms)
    I     Atom           X                Y                Z
 ----------------------------------------------------------------
    1      C       1.9219295099     1.1740100594     0.7904440120
    2      O       0.6009796511     0.7631018978     1.0516383867
    3      C      -0.7966271548    -1.2739269079    -1.1537941206
    4      C      -1.9454822205    -0.7076366003    -0.4584876003
    5      O      -1.0412051645     0.1278784804    -1.1731878481
    6      H       1.9701797804     2.2092446856     0.4325114930
    7      H       2.4774389868     1.1131585159     1.7267762037
    8      H       2.4211992818     0.5309193373     0.0549522528
    9      H      -0.9346270801    -1.7722818425    -2.1076785093
   10      H       0.0705007818    -1.5773467691    -0.5753486637
   11      H      -2.9336029797    -0.7857659417    -0.8999077106
   12      H      -1.9100510085    -0.6008628338     0.6212424631
   13      H       0.0945796164     0.8006149189     0.2291576413
 ----------------------------------------------------------------
 Nuclear Repulsion Energy =   180.5173306952 hartrees
 There are       21 alpha and       21 beta electrons
 Applying Cartesian multipole field
    Component          Value
    ---------          -----
     (2,0,0)        1.00000E-11
     (0,2,0)        2.00000E-11
     (0,0,2)       -3.00000E-11
 Nucleus-field energy     =     0.0000000015 hartrees
 Requested basis set is def2-TZVP
 There are 87 shells and 203 basis functions
 A cutoff of  1.0D-11 yielded   3415 shell pairs
 There are     18743 function pairs (     23698 Cartesian)
 Smallest overlap matrix eigenvalue = 3.63E-04
 Guess MOs from SCF MO coefficient file
 Reading MOs from coefficient file
 Reading MOs from coefficient file

 -----------------------------------------------------------------------
  General SCF calculation program by
  Eric Jon Sundstrom, Paul Horn, Yuezhi Mao, Dmitri Zuev, Alec White,
  David Stuck, Shaama M.S., Shane Yost, Joonho Lee, David Small,
  Daniel Levine, Susi Lehtola, Hugh Burton, Evgeny Epifanovsky
 -----------------------------------------------------------------------
 Exchange:     0.1957 Hartree-Fock + 1.0000 wB97X-D3 + LR-HF
 Correlation:  1.0000 wB97X-D3
 Using SG-2 standard quadrature grid
 Dispersion:   Grimme D3
 using 16 threads for integral computing
 -------------------------------------------------------
 OpenMP Integral computing Module                
 Release: version 1.0, May 2013, Q-Chem Inc. Pittsburgh 
 -------------------------------------------------------
 using 16 threads for integral computing
 -------------------------------------------------------
 OpenMP Integral computing Module                
 Release: version 1.0, May 2013, Q-Chem Inc. Pittsburgh 
 -------------------------------------------------------
 -------------------------------------------------------
 OpenMP BLAS3 based DFT computing Module                
 Release: version 1.0, May 2013, Q-Chem Inc. Pittsburgh 
 -------------------------------------------------------
 A unrestricted SCF calculation will be
 performed using DIIS
 SCF converges when DIIS error is below 1.0e-08
 ---------------------------------------
  Cycle       Energy         DIIS error
 ---------------------------------------
    1    -269.5502786174      1.32e-04  
    2    -269.5520945618      1.89e-05  
    3    -269.5521104097      6.34e-06  
    4    -269.5521114654      4.71e-06  
    5    -269.5521118480      1.03e-06  
    6    -269.5521118714      4.05e-07  
    7    -269.5521118759      1.23e-07  
    8    -269.5521118763      6.08e-08  
    9    -269.5521118764      1.08e-08  
   10    -269.5521118764      3.30e-09  Convergence criterion met
 ---------------------------------------
 SCF time:   CPU 275.02s  wall 21.00s 
<S^2> =          0.000000000
 SCF   energy in the final basis set =     -269.5521118764
 Total energy in the final basis set =     -269.5521118764
 No wavefunction analysis requested
 Calculating analytic gradient of the SCF energy
 Gradient of SCF Energy
            1           2           3           4           5           6
    1   0.0000169   0.0000025   0.0000937   0.0001309  -0.0001805   0.0000364
    2  -0.0001242   0.0001289   0.0001497   0.0002626  -0.0002953   0.0000881
    3  -0.0000205   0.0000331  -0.0001039  -0.0000451  -0.0001912  -0.0000059
            7           8           9          10          11          12
    1   0.0000510   0.0000173   0.0000207   0.0000441  -0.0001022  -0.0001151
    2   0.0000037   0.0000045  -0.0000795  -0.0000449  -0.0000158  -0.0000300
    3   0.0000450  -0.0000660  -0.0000311   0.0000027   0.0000574   0.0000708
           13
    1  -0.0000157
    2  -0.0000477
    3   0.0002548
 Max gradient component =       2.953E-04
 RMS gradient           =       1.075E-04
 Gradient time:  CPU 60.04 s  wall 4.69 s
 Geometry Optimization Parameters
   NAtoms,    NIC,     NZ,  NCons,   NDum,   NFix, NCnnct, MaxDiis
       13      86       0       0       0       0       0       0

 Cartesian Hessian Update
 Hessian Updated using BFGS Update


** GEOMETRY OPTIMIZATION IN DELOCALIZED INTERNAL COORDINATES **
   Searching for a Minimum

   Optimization Cycle:   6

                       Coordinates (Angstroms)
     ATOM                X               Y               Z
      1  C         1.9219295099    1.1740100594    0.7904440120
      2  O         0.6009796511    0.7631018978    1.0516383867
      3  C        -0.7966271548   -1.2739269079   -1.1537941206
      4  C        -1.9454822205   -0.7076366003   -0.4584876003
      5  O        -1.0412051645    0.1278784804   -1.1731878481
      6  H         1.9701797804    2.2092446856    0.4325114930
      7  H         2.4774389868    1.1131585159    1.7267762037
      8  H         2.4211992818    0.5309193373    0.0549522528
      9  H        -0.9346270801   -1.7722818425   -2.1076785093
     10  H         0.0705007818   -1.5773467691   -0.5753486637
     11  H        -2.9336029797   -0.7857659417   -0.8999077106
     12  H        -1.9100510085   -0.6008628338    0.6212424631
     13  H         0.0945796164    0.8006149189    0.2291576413
   Point Group: c1    Number of degrees of freedom:    33


   Energy is   -269.552111876

 Hessian Updated using BFGS Update

 33 Hessian modes will be used to form the next step
  Hessian Eigenvalues:
     0.001084    0.005209    0.012786    0.020976    0.028230    0.029920
     0.030693    0.035773    0.047209    0.070715    0.084813    0.101142
     0.102314    0.103719    0.105302    0.107719    0.155297    0.160006
     0.160844    0.164387    0.171123    0.274110    0.314878    0.328687
     0.332535    0.340355    0.345258    0.345549    0.345753    0.352497
     0.384117    0.435417    0.519433

 Minimum Search - Taking Simple RFO Step
 Searching for Lamda that Minimizes Along All modes
 Value Taken    Lamda =  -0.00000494
 Step Taken.  Stepsize is  0.041251

                             Maximum     Tolerance    Cnvgd?
         Gradient           0.000263      0.000100      NO
         Displacement       0.034245      0.000400      NO
         Energy change     -0.000010      0.000000      NO


 New Cartesian Coordinates Obtained by Inverse Iteration

 Displacement from previous Coordinates is:  0.057183
 Adding empirical dispersion correction 
 ----------------------------------------------------------------
 Doing -D3(0) with
 s6  =   1.00000
 s8  =   1.00000
 rs6 =   1.28100
 rs8 =   1.09400
 -D3 energy without 3body term =     -0.0022989553 hartrees
 ----------------------------------------------------------------
             Standard Nuclear Orientation (Angstroms)
    I     Atom           X                Y                Z
 ----------------------------------------------------------------
    1      C       1.9232943790     1.1765574907     0.7934591321
    2      O       0.6021299924     0.7627584765     1.0487977261
    3      C      -0.8007774070    -1.2762549677    -1.1580005732
    4      C      -1.9450530135    -0.7085405215    -0.4566853338
    5      O      -1.0410197632     0.1267430365    -1.1729808083
    6      H       1.9701403863     2.2090124588     0.4276346097
    7      H       2.4723844997     1.1249011793     1.7340597836
    8      H       2.4300453776     0.5293894643     0.0666930868
    9      H      -0.9439564660    -1.7713543106    -2.1127621408
   10      H       0.0678234120    -1.5837661887    -0.5840195617
   11      H      -2.9349537435    -0.7823319047    -0.8946684037
   12      H      -1.9044676708    -0.6041031630     0.6230195609
   13      H       0.0996220172     0.7980959503     0.2237709222
 ----------------------------------------------------------------
 Nuclear Repulsion Energy =   180.4683896525 hartrees
 There are       21 alpha and       21 beta electrons
 Applying Cartesian multipole field
    Component          Value
    ---------          -----
     (2,0,0)        1.00000E-11
     (0,2,0)        2.00000E-11
     (0,0,2)       -3.00000E-11
 Nucleus-field energy     =     0.0000000015 hartrees
 Requested basis set is def2-TZVP
 There are 87 shells and 203 basis functions
 A cutoff of  1.0D-11 yielded   3415 shell pairs
 There are     18743 function pairs (     23698 Cartesian)
 Smallest overlap matrix eigenvalue = 3.63E-04
 Guess MOs from SCF MO coefficient file
 Reading MOs from coefficient file
 Reading MOs from coefficient file

 -----------------------------------------------------------------------
  General SCF calculation program by
  Eric Jon Sundstrom, Paul Horn, Yuezhi Mao, Dmitri Zuev, Alec White,
  David Stuck, Shaama M.S., Shane Yost, Joonho Lee, David Small,
  Daniel Levine, Susi Lehtola, Hugh Burton, Evgeny Epifanovsky
 -----------------------------------------------------------------------
 Exchange:     0.1957 Hartree-Fock + 1.0000 wB97X-D3 + LR-HF
 Correlation:  1.0000 wB97X-D3
 Using SG-2 standard quadrature grid
 Dispersion:   Grimme D3
 using 16 threads for integral computing
 -------------------------------------------------------
 OpenMP Integral computing Module                
 Release: version 1.0, May 2013, Q-Chem Inc. Pittsburgh 
 -------------------------------------------------------
 using 16 threads for integral computing
 -------------------------------------------------------
 OpenMP Integral computing Module                
 Release: version 1.0, May 2013, Q-Chem Inc. Pittsburgh 
 -------------------------------------------------------
 -------------------------------------------------------
 OpenMP BLAS3 based DFT computing Module                
 Release: version 1.0, May 2013, Q-Chem Inc. Pittsburgh 
 -------------------------------------------------------
 A unrestricted SCF calculation will be
 performed using DIIS
 SCF converges when DIIS error is below 1.0e-08
 ---------------------------------------
  Cycle       Energy         DIIS error
 ---------------------------------------
    1    -269.5516545355      6.08e-05  
    2    -269.5521120557      8.50e-06  
    3    -269.5521152912      2.80e-06  
    4    -269.5521155047      2.06e-06  
    5    -269.5521155758      3.88e-07  
    6    -269.5521155800      1.24e-07  
    7    -269.5521155805      4.78e-08  
    8    -269.5521155806      2.32e-08  
    9    -269.5521155806      6.63e-09  Convergence criterion met
 ---------------------------------------
 SCF time:   CPU 246.69s  wall 22.00s 
<S^2> =          0.000000000
 SCF   energy in the final basis set =     -269.5521155806
 Total energy in the final basis set =     -269.5521155806
 No wavefunction analysis requested
 Calculating analytic gradient of the SCF energy
 Gradient of SCF Energy
            1           2           3           4           5           6
    1   0.0000414  -0.0000131   0.0000124  -0.0000162  -0.0000512   0.0000148
    2  -0.0000485   0.0000997  -0.0000818  -0.0000063   0.0000892   0.0000524
    3  -0.0000559   0.0001123  -0.0000591   0.0000628  -0.0002405  -0.0000087
            7           8           9          10          11          12
    1   0.0000032   0.0000103   0.0000213   0.0000246  -0.0000538  -0.0000572
    2  -0.0000187  -0.0000113  -0.0000374  -0.0000353   0.0000027  -0.0000054
    3   0.0000298  -0.0000520  -0.0000186  -0.0000077   0.0000256   0.0000346
           13
    1   0.0000635
    2   0.0000007
    3   0.0001773
 Max gradient component =       2.405E-04
 RMS gradient           =       6.559E-05
 Gradient time:  CPU 63.08 s  wall 4.63 s
 Geometry Optimization Parameters
   NAtoms,    NIC,     NZ,  NCons,   NDum,   NFix, NCnnct, MaxDiis
       13      86       0       0       0       0       0       0

 Cartesian Hessian Update
 Hessian Updated using BFGS Update


** GEOMETRY OPTIMIZATION IN DELOCALIZED INTERNAL COORDINATES **
   Searching for a Minimum

   Optimization Cycle:   7

                       Coordinates (Angstroms)
     ATOM                X               Y               Z
      1  C         1.9232943790    1.1765574907    0.7934591321
      2  O         0.6021299924    0.7627584765    1.0487977261
      3  C        -0.8007774070   -1.2762549677   -1.1580005732
      4  C        -1.9450530135   -0.7085405215   -0.4566853338
      5  O        -1.0410197632    0.1267430365   -1.1729808083
      6  H         1.9701403863    2.2090124588    0.4276346097
      7  H         2.4723844997    1.1249011793    1.7340597836
      8  H         2.4300453776    0.5293894643    0.0666930868
      9  H        -0.9439564660   -1.7713543106   -2.1127621408
     10  H         0.0678234120   -1.5837661887   -0.5840195617
     11  H        -2.9349537435   -0.7823319047   -0.8946684037
     12  H        -1.9044676708   -0.6041031630    0.6230195609
     13  H         0.0996220172    0.7980959503    0.2237709222
   Point Group: c1    Number of degrees of freedom:    33


   Energy is   -269.552115581

 Hessian Updated using BFGS Update

 33 Hessian modes will be used to form the next step
  Hessian Eigenvalues:
     0.000996    0.004000    0.012351    0.019640    0.027071    0.029931
     0.030174    0.033551    0.037088    0.070996    0.084704    0.101153
     0.102690    0.103738    0.105167    0.106713    0.152982    0.160044
     0.160668    0.166030    0.172272    0.297424    0.314961    0.328732
     0.332312    0.341075    0.345250    0.345551    0.345799    0.359599
     0.386092    0.433452    0.517497

 Minimum Search - Taking Simple RFO Step
 Searching for Lamda that Minimizes Along All modes
 Value Taken    Lamda =  -0.00000671
 Step Taken.  Stepsize is  0.051082

                             Maximum     Tolerance    Cnvgd?
         Gradient           0.000197      0.000100      NO
         Displacement       0.035798      0.000400      NO
         Energy change     -0.000004      0.000000      NO


 New Cartesian Coordinates Obtained by Inverse Iteration

 Displacement from previous Coordinates is:  0.090418
 Adding empirical dispersion correction 
 ----------------------------------------------------------------
 Doing -D3(0) with
 s6  =   1.00000
 s8  =   1.00000
 rs6 =   1.28100
 rs8 =   1.09400
 -D3 energy without 3body term =     -0.0022883487 hartrees
 ----------------------------------------------------------------
             Standard Nuclear Orientation (Angstroms)
    I     Atom           X                Y                Z
 ----------------------------------------------------------------
    1      C       1.9256513589     1.1816073787     0.7973155545
    2      O       0.6081225631     0.7499379239     1.0413214578
    3      C      -0.8078416630    -1.2818002270    -1.1611422814
    4      C      -1.9452731226    -0.7065146531    -0.4553911645
    5      O      -1.0370470516     0.1234064113    -1.1736570767
    6      H       1.9614457671     2.2139824322     0.4304170997
    7      H       2.4672097819     1.1384798241     1.7426400782
    8      H       2.4477953260     0.5404853422     0.0761185563
    9      H      -0.9579974168    -1.7739210484    -2.1162861314
   10      H       0.0603583874    -1.5965242431    -0.5906205158
   11      H      -2.9368433089    -0.7717416744    -0.8906426123
   12      H      -1.8993681715    -0.6032128597     0.6241060368
   13      H       0.1089995502     0.7869223935     0.2141389988
 ----------------------------------------------------------------
 Nuclear Repulsion Energy =   180.4625100796 hartrees
 There are       21 alpha and       21 beta electrons
 Applying Cartesian multipole field
    Component          Value
    ---------          -----
     (2,0,0)        1.00000E-11
     (0,2,0)        2.00000E-11
     (0,0,2)       -3.00000E-11
 Nucleus-field energy     =     0.0000000015 hartrees
 Requested basis set is def2-TZVP
 There are 87 shells and 203 basis functions
 A cutoff of  1.0D-11 yielded   3414 shell pairs
 There are     18734 function pairs (     23689 Cartesian)
 Smallest overlap matrix eigenvalue = 3.63E-04
 Guess MOs from SCF MO coefficient file
 Reading MOs from coefficient file
 Reading MOs from coefficient file

 -----------------------------------------------------------------------
  General SCF calculation program by
  Eric Jon Sundstrom, Paul Horn, Yuezhi Mao, Dmitri Zuev, Alec White,
  David Stuck, Shaama M.S., Shane Yost, Joonho Lee, David Small,
  Daniel Levine, Susi Lehtola, Hugh Burton, Evgeny Epifanovsky
 -----------------------------------------------------------------------
 Exchange:     0.1957 Hartree-Fock + 1.0000 wB97X-D3 + LR-HF
 Correlation:  1.0000 wB97X-D3
 Using SG-2 standard quadrature grid
 Dispersion:   Grimme D3
 using 16 threads for integral computing
 -------------------------------------------------------
 OpenMP Integral computing Module                
 Release: version 1.0, May 2013, Q-Chem Inc. Pittsburgh 
 -------------------------------------------------------
 using 16 threads for integral computing
 -------------------------------------------------------
 OpenMP Integral computing Module                
 Release: version 1.0, May 2013, Q-Chem Inc. Pittsburgh 
 -------------------------------------------------------
 -------------------------------------------------------
 OpenMP BLAS3 based DFT computing Module                
 Release: version 1.0, May 2013, Q-Chem Inc. Pittsburgh 
 -------------------------------------------------------
 A unrestricted SCF calculation will be
 performed using DIIS
 SCF converges when DIIS error is below 1.0e-08
 ---------------------------------------
  Cycle       Energy         DIIS error
 ---------------------------------------
    1    -269.5514640709      1.22e-04  
    2    -269.5521082828      1.59e-05  
    3    -269.5521189540      6.79e-06  
    4    -269.5521198571      4.16e-06  
    5    -269.5521201722      8.00e-07  
    6    -269.5521201844      2.66e-07  
    7    -269.5521201863      6.83e-08  
    8    -269.5521201865      2.98e-08  
    9    -269.5521201865      1.33e-08  
   10    -269.5521201865      3.47e-09  Convergence criterion met
 ---------------------------------------
 SCF time:   CPU 276.58s  wall 20.00s 
<S^2> =          0.000000000
 SCF   energy in the final basis set =     -269.5521201865
 Total energy in the final basis set =     -269.5521201865
 No wavefunction analysis requested
 Calculating analytic gradient of the SCF energy
 Gradient of SCF Energy
            1           2           3           4           5           6
    1   0.0000948  -0.0000465  -0.0000965  -0.0001896   0.0001454  -0.0000135
    2   0.0000513   0.0000396  -0.0002648  -0.0002764   0.0004036  -0.0000244
    3  -0.0000109   0.0000602   0.0000132   0.0001512  -0.0001944  -0.0000144
            7           8           9          10          11          12
    1   0.0000003   0.0000090   0.0000077  -0.0000075   0.0000284   0.0000527
    2  -0.0000320  -0.0000192   0.0000278  -0.0000123   0.0000246   0.0000273
    3  -0.0000138  -0.0000225   0.0000047  -0.0000142  -0.0000278  -0.0000224
           13
    1   0.0000153
    2   0.0000550
    3   0.0000911
 Max gradient component =       4.036E-04
 RMS gradient           =       1.107E-04
 Gradient time:  CPU 63.14 s  wall 4.75 s
 Geometry Optimization Parameters
   NAtoms,    NIC,     NZ,  NCons,   NDum,   NFix, NCnnct, MaxDiis
       13      86       0       0       0       0       0       0

 Cartesian Hessian Update
 Hessian Updated using BFGS Update


** GEOMETRY OPTIMIZATION IN DELOCALIZED INTERNAL COORDINATES **
   Searching for a Minimum

   Optimization Cycle:   8

                       Coordinates (Angstroms)
     ATOM                X               Y               Z
      1  C         1.9256513589    1.1816073787    0.7973155545
      2  O         0.6081225631    0.7499379239    1.0413214578
      3  C        -0.8078416630   -1.2818002270   -1.1611422814
      4  C        -1.9452731226   -0.7065146531   -0.4553911645
      5  O        -1.0370470516    0.1234064113   -1.1736570767
      6  H         1.9614457671    2.2139824322    0.4304170997
      7  H         2.4672097819    1.1384798241    1.7426400782
      8  H         2.4477953260    0.5404853422    0.0761185563
      9  H        -0.9579974168   -1.7739210484   -2.1162861314
     10  H         0.0603583874   -1.5965242431   -0.5906205158
     11  H        -2.9368433089   -0.7717416744   -0.8906426123
     12  H        -1.8993681715   -0.6032128597    0.6241060368
     13  H         0.1089995502    0.7869223935    0.2141389988
   Point Group: c1    Number of degrees of freedom:    33


   Energy is   -269.552120187

 Hessian Updated using BFGS Update

 33 Hessian modes will be used to form the next step
  Hessian Eigenvalues:
     0.000920    0.002904    0.012622    0.017253    0.025329    0.029916
     0.031029    0.031945    0.037367    0.072090    0.084722    0.101311
     0.102603    0.103865    0.105679    0.108514    0.152268    0.160191
     0.160506    0.165280    0.172064    0.308591    0.315052    0.328816
     0.333113    0.341355    0.345254    0.345553    0.345849    0.369377
     0.380125    0.433249    0.517987

 Minimum Search - Taking Simple RFO Step
 Searching for Lamda that Minimizes Along All modes
 Value Taken    Lamda =  -0.00000456
 Step Taken.  Stepsize is  0.042865

                             Maximum     Tolerance    Cnvgd?
         Gradient           0.000224      0.000100      NO
         Displacement       0.021940      0.000400      NO
         Energy change     -0.000005      0.000000      NO


 New Cartesian Coordinates Obtained by Inverse Iteration

 Displacement from previous Coordinates is:  0.110450
 Adding empirical dispersion correction 
 ----------------------------------------------------------------
 Doing -D3(0) with
 s6  =   1.00000
 s8  =   1.00000
 rs6 =   1.28100
 rs8 =   1.09400
 -D3 energy without 3body term =     -0.0022767495 hartrees
 ----------------------------------------------------------------
             Standard Nuclear Orientation (Angstroms)
    I     Atom           X                Y                Z
 ----------------------------------------------------------------
    1      C       1.9282933334     1.1874579701     0.8003114716
    2      O       0.6178133144     0.7291597017     1.0323764803
    3      C      -0.8150867340    -1.2887237708    -1.1615844393
    4      C      -1.9464165615    -0.7018907608    -0.4556887281
    5      O      -1.0308821431     0.1185206862    -1.1757135969
    6      H       1.9470364662     2.2233459665     0.4423015066
    7      H       2.4647812767     1.1465110276     1.7486025424
    8      H       2.4669168239     0.5622643612     0.0773078594
    9      H      -0.9708852544    -1.7803948975    -2.1160295635
   10      H       0.0506907774    -1.6105701520    -0.5914518302
   11      H      -2.9387958959    -0.7581202720    -0.8902036712
   12      H      -1.8981563948    -0.5974978786     0.6235653112
   13      H       0.1199029919     0.7710450187     0.2045246577
 ----------------------------------------------------------------
 Nuclear Repulsion Energy =   180.4902987281 hartrees
 There are       21 alpha and       21 beta electrons
 Applying Cartesian multipole field
    Component          Value
    ---------          -----
     (2,0,0)        1.00000E-11
     (0,2,0)        2.00000E-11
     (0,0,2)       -3.00000E-11
 Nucleus-field energy     =     0.0000000015 hartrees
 Requested basis set is def2-TZVP
 There are 87 shells and 203 basis functions
 A cutoff of  1.0D-11 yielded   3414 shell pairs
 There are     18734 function pairs (     23689 Cartesian)
 Smallest overlap matrix eigenvalue = 3.63E-04
 Guess MOs from SCF MO coefficient file
 Reading MOs from coefficient file
 Reading MOs from coefficient file

 -----------------------------------------------------------------------
  General SCF calculation program by
  Eric Jon Sundstrom, Paul Horn, Yuezhi Mao, Dmitri Zuev, Alec White,
  David Stuck, Shaama M.S., Shane Yost, Joonho Lee, David Small,
  Daniel Levine, Susi Lehtola, Hugh Burton, Evgeny Epifanovsky
 -----------------------------------------------------------------------
 Exchange:     0.1957 Hartree-Fock + 1.0000 wB97X-D3 + LR-HF
 Correlation:  1.0000 wB97X-D3
 Using SG-2 standard quadrature grid
 Dispersion:   Grimme D3
 using 16 threads for integral computing
 -------------------------------------------------------
 OpenMP Integral computing Module                
 Release: version 1.0, May 2013, Q-Chem Inc. Pittsburgh 
 -------------------------------------------------------
 using 16 threads for integral computing
 -------------------------------------------------------
 OpenMP Integral computing Module                
 Release: version 1.0, May 2013, Q-Chem Inc. Pittsburgh 
 -------------------------------------------------------
 -------------------------------------------------------
 OpenMP BLAS3 based DFT computing Module                
 Release: version 1.0, May 2013, Q-Chem Inc. Pittsburgh 
 -------------------------------------------------------
 A unrestricted SCF calculation will be
 performed using DIIS
 SCF converges when DIIS error is below 1.0e-08
 ---------------------------------------
  Cycle       Energy         DIIS error
 ---------------------------------------
    1    -269.5514910703      1.59e-04  
    2    -269.5521027957      2.09e-05  
    3    -269.5521210230      9.14e-06  
    4    -269.5521226607      5.21e-06  
    5    -269.5521231762      1.08e-06  
    6    -269.5521231951      3.48e-07  
    7    -269.5521231979      7.80e-08  
    8    -269.5521231981      3.99e-08  
    9    -269.5521231981      1.41e-08  
   10    -269.5521231982      3.82e-09  Convergence criterion met
 ---------------------------------------
 SCF time:   CPU 276.78s  wall 20.00s 
<S^2> =          0.000000000
 SCF   energy in the final basis set =     -269.5521231982
 Total energy in the final basis set =     -269.5521231982
 No wavefunction analysis requested
 Calculating analytic gradient of the SCF energy
 Gradient of SCF Energy
            1           2           3           4           5           6
    1   0.0000458   0.0000226  -0.0001291  -0.0002373   0.0002576  -0.0000179
    2   0.0000603  -0.0000016  -0.0002094  -0.0002790   0.0003207  -0.0000612
    3  -0.0000103  -0.0000086   0.0000275   0.0001317  -0.0000441  -0.0000147
            7           8           9          10          11          12
    1  -0.0000175   0.0000171  -0.0000085  -0.0000209   0.0000634   0.0001059
    2  -0.0000346  -0.0000124   0.0000516   0.0000073   0.0000312   0.0000331
    3  -0.0000314   0.0000055   0.0000147  -0.0000146  -0.0000457  -0.0000421
           13
    1  -0.0000812
    2   0.0000939
    3   0.0000321
 Max gradient component =       3.207E-04
 RMS gradient           =       1.061E-04
 Gradient time:  CPU 63.01 s  wall 4.74 s
 Geometry Optimization Parameters
   NAtoms,    NIC,     NZ,  NCons,   NDum,   NFix, NCnnct, MaxDiis
       13      86       0       0       0       0       0       0

 Cartesian Hessian Update
 Hessian Updated using BFGS Update


** GEOMETRY OPTIMIZATION IN DELOCALIZED INTERNAL COORDINATES **
   Searching for a Minimum

   Optimization Cycle:   9

                       Coordinates (Angstroms)
     ATOM                X               Y               Z
      1  C         1.9282933334    1.1874579701    0.8003114716
      2  O         0.6178133144    0.7291597017    1.0323764803
      3  C        -0.8150867340   -1.2887237708   -1.1615844393
      4  C        -1.9464165615   -0.7018907608   -0.4556887281
      5  O        -1.0308821431    0.1185206862   -1.1757135969
      6  H         1.9470364662    2.2233459665    0.4423015066
      7  H         2.4647812767    1.1465110276    1.7486025424
      8  H         2.4669168239    0.5622643612    0.0773078594
      9  H        -0.9708852544   -1.7803948975   -2.1160295635
     10  H         0.0506907774   -1.6105701520   -0.5914518302
     11  H        -2.9387958959   -0.7581202720   -0.8902036712
     12  H        -1.8981563948   -0.5974978786    0.6235653112
     13  H         0.1199029919    0.7710450187    0.2045246577
   Point Group: c1    Number of degrees of freedom:    33


   Energy is   -269.552123198

 Hessian Updated using BFGS Update

 33 Hessian modes will be used to form the next step
  Hessian Eigenvalues:
     0.000846    0.002357    0.013146    0.015114    0.025289    0.029918
     0.031033    0.032967    0.038730    0.072862    0.084751    0.101229
     0.102262    0.103806    0.105556    0.109056    0.151966    0.159976
     0.160790    0.164583    0.171945    0.290725    0.314965    0.328666
     0.332896    0.341006    0.345267    0.345553    0.345789    0.357168
     0.375510    0.434549    0.519019

 Minimum Search - Taking Simple RFO Step
 Searching for Lamda that Minimizes Along All modes
 Value Taken    Lamda =  -0.00000254
 Step Taken.  Stepsize is  0.029825

                             Maximum     Tolerance    Cnvgd?
         Gradient           0.000175      0.000100      NO
         Displacement       0.014458      0.000400      NO
         Energy change     -0.000003      0.000000      NO


 New Cartesian Coordinates Obtained by Inverse Iteration

 Displacement from previous Coordinates is:  0.089444
 Adding empirical dispersion correction 
 ----------------------------------------------------------------
 Doing -D3(0) with
 s6  =   1.00000
 s8  =   1.00000
 rs6 =   1.28100
 rs8 =   1.09400
 -D3 energy without 3body term =     -0.0022681972 hartrees
 ----------------------------------------------------------------
             Standard Nuclear Orientation (Angstroms)
    I     Atom           X                Y                Z
 ----------------------------------------------------------------
    1      C       1.9304942665     1.1918729561     0.8023253412
    2      O       0.6262273511     0.7120809861     1.0250853783
    3      C      -0.8202298807    -1.2939512933    -1.1607961614
    4      C      -1.9478111948    -0.6977124835    -0.4566681889
    5      O      -1.0267050264     0.1143899987    -1.1784703455
    6      H       1.9354323270     2.2317486144     0.4554714839
    7      H       2.4646370623     1.1488380074     1.7518873447
    8      H       2.4803780093     0.5822368068     0.0745891239
    9      H      -0.9793339570    -1.7871814493    -2.1139179792
   10      H       0.0433167537    -1.6198617764    -0.5896057931
   11      H      -2.9405238974    -0.7485425848    -0.8911381125
   12      H      -1.8992713907    -0.5911178831     0.6223867564
   13      H       0.1286015772     0.7583071012     0.1971691523
 ----------------------------------------------------------------
 Nuclear Repulsion Energy =   180.5092442428 hartrees
 There are       21 alpha and       21 beta electrons
 Applying Cartesian multipole field
    Component          Value
    ---------          -----
     (2,0,0)        1.00000E-11
     (0,2,0)        2.00000E-11
     (0,0,2)       -3.00000E-11
 Nucleus-field energy     =     0.0000000015 hartrees
 Requested basis set is def2-TZVP
 There are 87 shells and 203 basis functions
 A cutoff of  1.0D-11 yielded   3413 shell pairs
 There are     18719 function pairs (     23671 Cartesian)
 Smallest overlap matrix eigenvalue = 3.63E-04
 Guess MOs from SCF MO coefficient file
 Reading MOs from coefficient file
 Reading MOs from coefficient file

 -----------------------------------------------------------------------
  General SCF calculation program by
  Eric Jon Sundstrom, Paul Horn, Yuezhi Mao, Dmitri Zuev, Alec White,
  David Stuck, Shaama M.S., Shane Yost, Joonho Lee, David Small,
  Daniel Levine, Susi Lehtola, Hugh Burton, Evgeny Epifanovsky
 -----------------------------------------------------------------------
 Exchange:     0.1957 Hartree-Fock + 1.0000 wB97X-D3 + LR-HF
 Correlation:  1.0000 wB97X-D3
 Using SG-2 standard quadrature grid
 Dispersion:   Grimme D3
 using 16 threads for integral computing
 -------------------------------------------------------
 OpenMP Integral computing Module                
 Release: version 1.0, May 2013, Q-Chem Inc. Pittsburgh 
 -------------------------------------------------------
 using 16 threads for integral computing
 -------------------------------------------------------
 OpenMP Integral computing Module                
 Release: version 1.0, May 2013, Q-Chem Inc. Pittsburgh 
 -------------------------------------------------------
 -------------------------------------------------------
 OpenMP BLAS3 based DFT computing Module                
 Release: version 1.0, May 2013, Q-Chem Inc. Pittsburgh 
 -------------------------------------------------------
 A unrestricted SCF calculation will be
 performed using DIIS
 SCF converges when DIIS error is below 1.0e-08
[...]
 H         -0.015 -0.079 -0.050   -0.219  0.087  0.276   -0.062  0.533  0.089
 H         -0.119 -0.567  0.099    0.186 -0.067  0.332    0.179 -0.224  0.327
 H          0.125  0.096 -0.064   -0.316 -0.057 -0.031   -0.143  0.090 -0.182
 H          0.163  0.127 -0.094    0.064 -0.041 -0.290   -0.137 -0.213 -0.156
 H          0.055 -0.181  0.070    0.016  0.044  0.411   -0.049  0.126 -0.067
 H          0.099 -0.144  0.036    0.400  0.071  0.150   -0.054 -0.169 -0.033
 H         -0.114  0.141  0.045    0.108  0.022 -0.206    0.061 -0.119  0.072
 TransDip   0.043 -0.068 -0.024    0.059  0.013  0.058   -0.057 -0.042 -0.070

 Mode:                 4                      5                      6
 Frequency:       120.30                 122.65                 210.11
 Force Cnst:      0.0156                 0.0279                 0.1230
 Red. Mass:       1.8250                 3.1479                 4.7295
 IR Active:          YES                    YES                    YES
 IR Intens:        4.992                  3.883                 10.339
 Raman Active:       YES                    YES                    YES
               X      Y      Z        X      Y      Z        X      Y      Z
 C          0.013  0.001  0.034    0.192  0.015  0.163   -0.044 -0.030  0.027
 O          0.034 -0.105 -0.094    0.101  0.160 -0.048   -0.102  0.027 -0.305
 C          0.092  0.079  0.102   -0.035 -0.025 -0.021   -0.004  0.001 -0.004
 C         -0.041 -0.024 -0.024   -0.133 -0.129 -0.089   -0.036 -0.033 -0.023
 O         -0.097  0.052 -0.010   -0.153 -0.043 -0.014    0.178  0.034  0.326
 H         -0.055 -0.120 -0.362    0.379  0.108  0.464    0.098  0.022  0.184
 H         -0.212  0.426  0.188    0.122 -0.338  0.179   -0.231 -0.204  0.123
 H          0.280 -0.204  0.391    0.146  0.138  0.035    0.080  0.049  0.056
 H          0.233 -0.009  0.125    0.072 -0.029 -0.037    0.093  0.277 -0.166
 H          0.090  0.241  0.196   -0.047  0.040  0.034   -0.136 -0.247  0.052
 H         -0.003 -0.187 -0.094   -0.099 -0.211 -0.157    0.028  0.223 -0.198
 H         -0.138  0.055 -0.028   -0.219 -0.140 -0.084   -0.182 -0.310  0.013
 H          0.051 -0.030 -0.100    0.178  0.224 -0.086    0.054 -0.041 -0.407
 TransDip   0.033  0.047  0.043    0.057 -0.001  0.027   -0.058 -0.055 -0.065

 Mode:                 7                      8                      9
 Frequency:       643.21                 832.55                 897.79
 Force Cnst:      0.2544                 0.4186                 4.5258
 Red. Mass:       1.0439                 1.0250                 9.5300
 IR Active:          YES                    YES                    YES
 IR Intens:      135.843                  1.281                 12.584
 Raman Active:       YES                    YES                    YES
               X      Y      Z        X      Y      Z        X      Y      Z
 C          0.002 -0.001 -0.000    0.002  0.001  0.000    0.002  0.001 -0.001
 O          0.010 -0.034 -0.018   -0.001  0.001  0.003   -0.000 -0.002 -0.001
 C         -0.010 -0.014 -0.005   -0.009 -0.004 -0.015   -0.023  0.521 -0.042
 C          0.001  0.003 -0.004   -0.009  0.001 -0.012   -0.336 -0.284  0.259
 O          0.017 -0.015  0.007   -0.016 -0.004 -0.021    0.310 -0.214 -0.187
 H         -0.017 -0.014 -0.031   -0.003  0.001 -0.001   -0.002  0.001  0.000
 H         -0.033  0.053  0.023    0.006  0.002 -0.002    0.001  0.001 -0.001
 H          0.039 -0.013  0.034   -0.003  0.000 -0.003    0.001 -0.000  0.000
 H         -0.017  0.007 -0.016    0.502  0.008 -0.100   -0.076  0.204  0.108
 H         -0.023 -0.024  0.007   -0.267  0.045  0.412   -0.145  0.216  0.012
 H         -0.008  0.041  0.011   -0.160  0.362  0.307   -0.258  0.095  0.093
 H          0.022 -0.040  0.001    0.379 -0.312  0.013   -0.191  0.061  0.195
 H         -0.322  0.904  0.249    0.019 -0.030 -0.013    0.001  0.004  0.000
 TransDip  -0.005  0.346  0.140    0.033  0.003  0.015   -0.075  0.069  0.049

 Mode:                10                     11                     12
 Frequency:       928.94                1070.74                1108.10
 Force Cnst:      1.8295                 0.6932                 2.8769
 Red. Mass:       3.5983                 1.0262                 3.9766
 IR Active:          YES                    YES                    YES
 IR Intens:       85.784                  0.049                128.647
 Raman Active:       YES                    YES                    YES
               X      Y      Z        X      Y      Z        X      Y      Z
 C         -0.002 -0.002  0.001    0.000 -0.000  0.001   -0.336 -0.104 -0.020
 O          0.003  0.002 -0.002   -0.000 -0.001 -0.000    0.306  0.112 -0.031
 C         -0.180 -0.036  0.125    0.009  0.001  0.027    0.004 -0.006  0.005
 C          0.070 -0.222 -0.025   -0.019 -0.000 -0.022   -0.008  0.002 -0.000
 O          0.110  0.271 -0.104    0.005 -0.000 -0.002    0.001  0.002 -0.010
 H          0.001 -0.002 -0.001   -0.006 -0.002 -0.004    0.030 -0.014  0.190
 H          0.001  0.003  0.001    0.010  0.005 -0.004   -0.644 -0.285  0.156
 H          0.002  0.001  0.001   -0.008 -0.001 -0.004   -0.011 -0.102  0.189
 H         -0.311 -0.198  0.244    0.113  0.457 -0.230    0.029  0.016 -0.010
 H         -0.332 -0.181  0.253   -0.174 -0.432  0.061    0.032 -0.002 -0.032
 H          0.085 -0.415 -0.009   -0.110 -0.456  0.232   -0.031  0.019  0.050
 H          0.110 -0.452 -0.012    0.200  0.427 -0.080    0.005  0.004  0.001
 H         -0.014  0.011  0.002    0.008  0.014 -0.004   -0.223 -0.162  0.285
 TransDip  -0.120 -0.262  0.069    0.007 -0.000 -0.002   -0.331 -0.147  0.027

 Mode:                13                     14                     15
 Frequency:      1132.57                1177.32                1185.89
 Force Cnst:      0.9854                 1.1888                 1.1588
 Red. Mass:       1.3038                 1.4556                 1.3985
 IR Active:          YES                    YES                    YES
 IR Intens:        2.425                  0.425                  0.289
 Raman Active:       YES                    YES                    YES
               X      Y      Z        X      Y      Z        X      Y      Z
 C         -0.071 -0.061  0.107    0.003  0.000  0.006    0.006 -0.013  0.004
 O          0.053  0.031 -0.033   -0.002 -0.001 -0.001   -0.003  0.006 -0.001
 C         -0.002  0.005 -0.008   -0.032 -0.108  0.045    0.094  0.013  0.117
 C          0.005 -0.001  0.003   -0.014 -0.087  0.081   -0.057 -0.030 -0.085
 O         -0.005 -0.003  0.004    0.009  0.070 -0.058   -0.022  0.006 -0.019
 H         -0.414 -0.149 -0.188   -0.004 -0.006 -0.014   -0.075 -0.014  0.005
 H          0.459  0.228 -0.174    0.035  0.013 -0.010    0.025  0.038 -0.004
 H         -0.390 -0.017 -0.176   -0.014  0.001 -0.009    0.030  0.040 -0.021
 H         -0.002 -0.028  0.009    0.416  0.380 -0.291   -0.449  0.214  0.109
 H         -0.031 -0.004  0.030    0.247  0.065 -0.264    0.257 -0.317 -0.302
 H          0.023 -0.007 -0.037    0.041  0.477 -0.106   -0.208  0.454  0.199
 H         -0.016  0.003  0.003   -0.316  0.278  0.061    0.287 -0.244 -0.078
 H          0.404  0.222 -0.228   -0.009  0.018 -0.003    0.012 -0.012 -0.012
 TransDip   0.027  0.031  0.028   -0.012 -0.016  0.006    0.006 -0.003  0.016

 Mode:                16                     17                     18
 Frequency:      1189.25                1191.88                1193.53
 Force Cnst:      1.0617                 1.0886                 1.0875
 Red. Mass:       1.2741                 1.3006                 1.2957
 IR Active:          YES                    YES                    YES
 IR Intens:        1.047                  2.184                  3.336
 Raman Active:       YES                    YES                    YES
               X      Y      Z        X      Y      Z        X      Y      Z
 C         -0.044  0.123  0.040    0.004 -0.009 -0.005   -0.001  0.008  0.011
 O          0.017 -0.056 -0.016   -0.001  0.004  0.002   -0.000 -0.003 -0.004
 C          0.015  0.006  0.003    0.036 -0.002 -0.070   -0.060 -0.052  0.017
 C          0.001 -0.012 -0.006   -0.006 -0.112 -0.031   -0.082  0.012 -0.060
 O         -0.008  0.003  0.000   -0.007  0.046  0.054    0.070  0.016  0.036
 H          0.620  0.060 -0.213   -0.043 -0.003  0.021    0.030 -0.004 -0.032
 H          0.134 -0.240 -0.084   -0.020  0.016  0.010    0.048 -0.004 -0.018
 H         -0.522 -0.401  0.091    0.047  0.032 -0.004   -0.058 -0.029 -0.004
 H         -0.061 -0.012  0.026   -0.129 -0.431  0.179    0.153 -0.116  0.007
 H         -0.019 -0.072  0.011   -0.116 -0.010  0.150    0.383  0.575 -0.300
 H         -0.007  0.084  0.003   -0.113  0.340  0.148   -0.252 -0.294  0.336
 H          0.011  0.026 -0.010    0.106  0.721 -0.130    0.300  0.061 -0.087
 H          0.023  0.015 -0.015   -0.015  0.013  0.009    0.005 -0.001 -0.009
 TransDip   0.002  0.031  0.010   -0.043  0.003 -0.020   -0.024 -0.010 -0.053

 Mode:                19                     20                     21
 Frequency:      1331.00                1437.62                1491.77
 Force Cnst:      2.3777                 1.4684                 1.4902
 Red. Mass:       2.2780                 1.2058                 1.1366
 IR Active:          YES                    YES                    YES
 IR Intens:       21.128                 60.435                  6.148
 Raman Active:       YES                    YES                    YES
               X      Y      Z        X      Y      Z        X      Y      Z
 C         -0.004  0.001 -0.007   -0.036  0.015 -0.098   -0.099 -0.039 -0.009
 O          0.003  0.000  0.006   -0.010 -0.022  0.066   -0.011 -0.003 -0.002
 C         -0.165  0.105  0.100    0.001 -0.003  0.002   -0.000  0.001 -0.000
 C          0.172 -0.079 -0.111   -0.015 -0.002  0.005    0.006  0.000 -0.003
 O         -0.035 -0.107  0.037    0.001  0.007  0.003   -0.000 -0.003 -0.001
 H          0.001  0.007  0.013    0.024  0.115  0.241    0.464  0.062  0.247
 H         -0.036 -0.019  0.008   -0.245 -0.099  0.011    0.521  0.323 -0.312
 H          0.005 -0.012  0.011    0.128 -0.171  0.173    0.407  0.139  0.216
 H         -0.131  0.444 -0.061    0.042 -0.035  0.008   -0.015  0.012 -0.002
 H         -0.028  0.471  0.064    0.026 -0.039 -0.052   -0.007  0.016  0.017
 H          0.264  0.228 -0.301    0.001 -0.003 -0.035   -0.009  0.001  0.030
 H          0.366  0.251 -0.176    0.037 -0.009  0.001   -0.029 -0.000 -0.001
 H          0.041 -0.000 -0.018    0.713  0.355 -0.348   -0.026 -0.006 -0.002
 TransDip   0.063  0.129 -0.033    0.215  0.121  0.035   -0.069 -0.039  0.009

 Mode:                22                     23                     24
 Frequency:      1501.39                1504.62                1519.05
 Force Cnst:      1.4276                 1.3966                 1.4315
 Red. Mass:       1.0749                 1.0471                 1.0530
 IR Active:          YES                    YES                    YES
 IR Intens:        0.595                  3.686                  2.156
 Raman Active:       YES                    YES                    YES
               X      Y      Z        X      Y      Z        X      Y      Z
 C          0.000 -0.017  0.007    0.017 -0.052 -0.010    0.041  0.012 -0.035
 O          0.001 -0.002 -0.003    0.002 -0.010  0.005    0.006  0.007 -0.027
 C         -0.037  0.042  0.020    0.009 -0.010 -0.005   -0.002  0.002  0.001
 C         -0.036  0.006  0.023    0.009 -0.002 -0.006   -0.002  0.001  0.002
 O         -0.014  0.005  0.009    0.003 -0.001 -0.002   -0.001  0.000 -0.000
 H          0.134 -0.002  0.016    0.354  0.054  0.223   -0.318  0.168  0.566
 H         -0.045  0.162  0.042   -0.304  0.591  0.208    0.141  0.225 -0.055
 H         -0.063  0.085 -0.114   -0.346  0.109 -0.371   -0.229 -0.553  0.245
 H          0.389 -0.303  0.117   -0.097  0.077 -0.030    0.021 -0.016  0.006
 H          0.072 -0.354 -0.347   -0.015  0.091  0.084    0.003 -0.019 -0.018
 H          0.172 -0.015 -0.416   -0.045  0.004  0.107    0.013  0.000 -0.028
 H          0.453  0.038 -0.011   -0.115 -0.011  0.002    0.030  0.004 -0.000
 H         -0.047 -0.012  0.026    0.065  0.016 -0.031   -0.188 -0.095  0.087
 TransDip   0.002 -0.011 -0.022   -0.014  0.059  0.010    0.005 -0.005  0.047

 Mode:                25                     26                     27
 Frequency:      1547.59                3009.37                3062.76
 Force Cnst:      1.9729                 5.5322                 6.1006
 Red. Mass:       1.3981                 1.0368                 1.1038
 IR Active:          YES                    YES                    YES
 IR Intens:        2.544                 71.761                 64.119
 Raman Active:       YES                    YES                    YES
               X      Y      Z        X      Y      Z        X      Y      Z
 C         -0.003 -0.001  0.000   -0.037 -0.010  0.034    0.025 -0.088 -0.021
 O          0.002  0.001  0.001   -0.002 -0.001  0.001   -0.000  0.000  0.000
 C          0.074 -0.094 -0.040    0.000 -0.000 -0.000    0.000 -0.000 -0.000
 C         -0.112  0.005  0.074   -0.000  0.000 -0.000   -0.000  0.000  0.000
 O          0.009  0.031 -0.010   -0.000 -0.000 -0.000   -0.000  0.000  0.000
 H          0.017 -0.000  0.002   -0.024  0.562 -0.157   -0.027  0.740 -0.237
 H          0.008  0.006 -0.005    0.141 -0.017  0.264    0.041 -0.028  0.055
 H          0.009  0.008  0.003    0.370 -0.412 -0.509   -0.300  0.324  0.432
 H         -0.358  0.243 -0.139    0.000  0.001  0.003   -0.000  0.000  0.000
 H         -0.034  0.300  0.337   -0.001  0.001 -0.000    0.001  0.000  0.000
 H          0.152 -0.030 -0.500    0.003 -0.000  0.001    0.001  0.000  0.001
 H          0.525  0.040  0.039    0.001  0.000 -0.001   -0.000 -0.000 -0.001
 H         -0.012 -0.010 -0.000   -0.010  0.001 -0.012   -0.002  0.003 -0.000
 TransDip  -0.021 -0.046  0.001   -0.240 -0.085  0.093    0.048 -0.244 -0.062

 Mode:                28                     29                     30
 Frequency:      3127.85                3131.30                3135.48
 Force Cnst:      6.0250                 6.3455                 6.1355
 Red. Mass:       1.0452                 1.0984                 1.0592
 IR Active:          YES                    YES                    YES
 IR Intens:       22.627                 39.742                 13.982
 Raman Active:       YES                    YES                    YES
               X      Y      Z        X      Y      Z        X      Y      Z
 C          0.001 -0.000  0.002   -0.031  0.014 -0.084   -0.002  0.001 -0.005
 O         -0.000  0.000 -0.000    0.000 -0.000  0.002   -0.000  0.000 -0.001
 C          0.025 -0.027 -0.013    0.003 -0.003 -0.001   -0.032  0.035  0.016
 C          0.036 -0.004 -0.024   -0.001  0.000  0.001    0.038 -0.005 -0.026
 O          0.001 -0.001 -0.001    0.000 -0.000 -0.000   -0.000 -0.001  0.000
 H         -0.000  0.006 -0.001    0.008 -0.218  0.047    0.001 -0.010  0.002
 H         -0.012  0.001 -0.021    0.456 -0.059  0.833    0.028 -0.003  0.051
 H          0.002 -0.002 -0.002   -0.094  0.107  0.109   -0.004  0.005  0.005
 H          0.077  0.214  0.418    0.007  0.020  0.039   -0.086 -0.230 -0.449
 H         -0.378  0.136 -0.260   -0.035  0.013 -0.024    0.414 -0.149  0.287
 H         -0.471 -0.023 -0.219    0.014  0.001  0.007   -0.429 -0.022 -0.202
 H          0.032  0.058  0.515   -0.001 -0.002 -0.016    0.032  0.052  0.475
 H          0.001 -0.000 -0.000   -0.002  0.004 -0.019    0.004 -0.002  0.007
 TransDip   0.123 -0.061 -0.065   -0.089  0.008 -0.181    0.052  0.108  0.001

 Mode:                31                     32                     33
 Frequency:      3218.66                3232.28                3730.57
 Force Cnst:      6.8479                 6.9036                 8.7571
 Red. Mass:       1.1219                 1.1215                 1.0680
 IR Active:          YES                    YES                    YES
 IR Intens:        0.378                 20.026                408.466
 Raman Active:       YES                    YES                    YES
               X      Y      Z        X      Y      Z        X      Y      Z
 C         -0.000 -0.000 -0.000    0.000  0.000 -0.000   -0.001  0.000 -0.002
 O         -0.000  0.000  0.000   -0.000 -0.000 -0.000   -0.034  0.003 -0.053
 C          0.040  0.007  0.060   -0.039 -0.007 -0.059    0.000 -0.001  0.000
 C         -0.040 -0.007 -0.059   -0.041 -0.006 -0.059   -0.001 -0.001  0.001
 O         -0.000  0.000  0.000    0.001  0.000  0.001    0.000  0.001 -0.000
 H          0.000 -0.000 -0.000   -0.000 -0.002  0.001    0.005  0.006 -0.002
 H          0.000 -0.000  0.001   -0.001  0.000 -0.001    0.013  0.000  0.016
 H         -0.000  0.000  0.000   -0.001  0.001  0.001    0.008 -0.001 -0.005
 H         -0.077 -0.229 -0.439    0.069  0.226  0.443    0.000  0.005  0.002
 H         -0.393  0.147 -0.264    0.395 -0.142  0.254   -0.003  0.004 -0.001
 H          0.450  0.023  0.203    0.459  0.014  0.203    0.005  0.002  0.000
 H          0.023  0.055  0.494    0.018  0.063  0.491    0.002  0.001 -0.004
 H          0.002 -0.001 -0.001    0.001  0.003 -0.001    0.517 -0.059  0.851
 TransDip  -0.013  0.008  0.012   -0.087 -0.022 -0.111    0.473  0.227  0.379

 STANDARD THERMODYNAMIC QUANTITIES AT   298.15 K  AND     1.00 ATM

   This Molecule has  0 Imaginary Frequencies
   Zero point vibrational energy:       70.293 kcal/mol

   Atom    1 Element C  Has Mass   12.00000
   Atom    2 Element O  Has Mass   15.99491
   Atom    3 Element C  Has Mass   12.00000
   Atom    4 Element C  Has Mass   12.00000
   Atom    5 Element O  Has Mass   15.99491
   Atom    6 Element H  Has Mass    1.00783
   Atom    7 Element H  Has Mass    1.00783
   Atom    8 Element H  Has Mass    1.00783
   Atom    9 Element H  Has Mass    1.00783
   Atom   10 Element H  Has Mass    1.00783
   Atom   11 Element H  Has Mass    1.00783
   Atom   12 Element H  Has Mass    1.00783
   Atom   13 Element H  Has Mass    1.00783
   Molecular Mass:    76.052460 amu
   Principal axes and moments of inertia in amu*Bohr^2:
                             1           2           3
    Eigenvalues --      149.98967   932.56022   964.64694
          X               0.75159    -0.63282    -0.18615
          Y               0.45785     0.29733     0.83784
          Z               0.47485     0.71494    -0.51321
   Rotational Symmetry Number is   1
   The Molecule is an Asymmetric Top
   Translational Enthalpy:        0.889 kcal/mol
   Rotational Enthalpy:           0.889 kcal/mol
   Vibrational Enthalpy:         73.356 kcal/mol
   gas constant (RT):             0.592 kcal/mol
   Translational Entropy:        38.902  cal/mol.K
   Rotational Entropy:           26.403  cal/mol.K
   Vibrational Entropy:          23.158  cal/mol.K

   Total Enthalpy:               75.726 kcal/mol
   Total Entropy:                88.463  cal/mol.K
Archival summary:
1\1\nid00471\FREQ\ProcedureUnspecified\BasisUnspecified\238\cgrambow\TueFeb1223:45:072019TueFeb1223:45:072019\0\\#,FREQ,ProcedureUnspecified,BasisUnspecified,\\0,1\O\C,1,1.42372\H,2,1.08495,1,114.698\H,2,1.08546,1,114.759,3,138.472,0\C,1,1.42407,2,61.5442,3,111.288,0\H,5,1.08493,1,114.574,2,-111.21,0\H,5,1.08546,1,114.82,2,110.405,0\H,1,1.91335,2,103.003,3,-151.335,0\O,8,0.966975,1,155.649,2,-29.3208,0\C,9,1.40762,8,108.975,1,136.273,0\H,10,1.09036,9,107.614,8,179.582,0\H,10,1.09633,9,112.182,8,60.8156,0\H,10,1.09701,9,112.302,8,-61.5514,0\\\@

 Total job time:  1119.50s(wall), 3896.57s(cpu) 
 Tue Feb 12 23:45:07 2019

        *************************************************************
        *                                                           *
        *  Thank you very much for using Q-Chem.  Have a nice day.  *
        *                                                           *
        *************************************************************


