
Running Job 1 of 2 molopt4.in
qchem molopt4.in_43383.0 /tmp/qchem43383/ 1
/global/common/cori/software/qchem/5.1/exe/qcprog.exe molopt4.in_43383.0 /tmp/qchem43383/
Check license passed

                  Welcome to Q-Chem
     A Quantum Leap Into The Future Of Chemistry


 Q-Chem 5.1, Q-Chem, Inc., Pleasanton, CA (2018)

 Yihan Shao,  Zhengting Gan,  E. Epifanovsky,  A. T. B. Gilbert,  M. Wormit,  
 J. Kussmann,  A. W. Lange,  A. Behn,  Jia Deng,  Xintian Feng,  D. Ghosh,  
 M. Goldey,  P. R. Horn,  L. D. Jacobson,  I. Kaliman,  T. Kus,  A. Landau,  
 Jie Liu,  E. I. Proynov,  R. M. Richard,  R. P. Steele,  E. J. Sundstrom,  
 H. L. Woodcock III,  P. M. Zimmerman,  D. Zuev,  B. Albrecht,  E. Alguire,  
 S. A. Baeppler,  D. Barton,  Z. Benda,  Y. A. Bernard,  E. J. Berquist,  
 K. B. Bravaya,  H. Burton,  D. Casanova,  Chun-Min Chang,  Yunqing Chen,  
 A. Chien,  K. D. Closser,  M. P. Coons,  S. Coriani,  S. Dasgupta,  
 A. L. Dempwolff,  M. Diedenhofen,  Hainam Do,  R. G. Edgar,  Po-Tung Fang,  
 S. Faraji,  S. Fatehi,  Qingguo Feng,  K. D. Fenk,  J. Fosso-Tande,  
 Qinghui Ge,  A. Ghysels,  G. Gidofalvi,  J. Gomes,  J. Gonthier,  A. Gunina,  
 D. Hait,  M. W. D. Hanson-Heine,  P. H. P. Harbach,  A. W. Hauser,  
 J. E. Herr,  E. G. Hohenstein,  Z. C. Holden,  Kerwin Hui,  B. C. Huynh,  
 T.-C. Jagau,  Hyunjun Ji,  B. Kaduk,  K. Khistyaev,  Jaehoon Kim,  
 P. Klunzinger,  K. Koh,  D. Kosenkov,  L. Koulias,  T. Kowalczyk,  
 C. M. Krauter,  A. Kunitsa,  Ka Un Lao,  A. Laurent,  K. V. Lawler,  
 Joonho Lee,  D. Lefrancois,  S. Lehtola,  D. S. Levine,  Yi-Pei Li,  
 You-Sheng Lin,  Fenglai Liu,  E. Livshits,  A. Luenser,  P. Manohar,  
 E. Mansoor,  S. F. Manzer,  Shan-Ping Mao,  Yuezhi Mao,  N. Mardirossian,  
 A. V. Marenich,  T. Markovich,  L. A. Martinez-Martinez,  S. A. Maurer,  
 N. J. Mayhall,  S. C. McKenzie,  J.-M. Mewes,  A. F. Morrison,  
 J. W. Mullinax,  K. Nanda,  T. S. Nguyen-Beck,  R. Olivares-Amaya,  
 J. A. Parkhill,  T. M. Perrine,  F. Plasser,  P. Pokhilko,  S. Prager,  
 A. Prociuk,  E. Ramos,  D. R. Rehn,  F. Rob,  M. Schneider,  N. Sergueev,  
 S. M. Sharada,  S. Sharma,  D. W. Small,  T. Stauch,  T. Stein,  
 Yu-Chuan Su,  A. J. W. Thom,  A. Tkatchenko,  T. Tsuchimochi,  N. M. Tubman,  
 L. Vogt,  M. L. Vidal,  O. Vydrov,  M. A. Watson,  J. Wenzel,  
 M. de Wergifosse,  T. A. Wesolowski,  A. White,  J. Witte,  A. Yamada,  
 Jun Yang,  K. Yao,  S. Yeganeh,  S. R. Yost,  Zhi-Qiang You,  A. Zech,  
 Igor Ying Zhang,  Xing Zhang,  Yan Zhao,  Ying Zhu,  B. R. Brooks,  
 G. K. L. Chan,  C. J. Cramer,  M. S. Gordon,  W. J. Hehre,  A. Klamt,  
 M. W. Schmidt,  C. D. Sherrill,  D. G. Truhlar,  A. Aspuru-Guzik,  R. Baer,  
 A. T. Bell,  N. A. Besley,  Jeng-Da Chai,  R. A. DiStasio Jr.,  A. Dreuw,  
 B. D. Dunietz,  T. R. Furlani,  Chao-Ping Hsu,  Yousung Jung,  Jing Kong,  
 D. S. Lambrecht,  WanZhen Liang,  C. Ochsenfeld,  V. A. Rassolov,  
 L. V. Slipchenko,  J. E. Subotnik,  T. Van Voorhis,  J. M. Herbert,  
 A. I. Krylov,  P. M. W. Gill,  M. Head-Gordon

 Contributors to earlier versions of Q-Chem not listed above: 
 R. D. Adamson,  B. Austin,  J. Baker,  G. J. O. Beran,  K. Brandhorst,  
 S. T. Brown,  E. F. C. Byrd,  A. K. Chakraborty,  C.-L. Cheng,  
 Siu Hung Chien,  D. M. Chipman,  D. L. Crittenden,  H. Dachsel,  
 R. J. Doerksen,  A. D. Dutoi,  L. Fusti-Molnar,  W. A. Goddard III,  
 A. Golubeva-Zadorozhnaya,  S. R. Gwaltney,  G. Hawkins,  A. Heyden,  
 S. Hirata,  G. Kedziora,  F. J. Keil,  C. Kelley,  Jihan Kim,  R. A. King,  
 R. Z. Khaliullin,  P. P. Korambath,  W. Kurlancheek,  A. M. Lee,  M. S. Lee,  
 S. V. Levchenko,  Ching Yeh Lin,  D. Liotard,  R. C. Lochan,  I. Lotan,  
 P. E. Maslen,  N. Nair,  D. P. O'Neill,  D. Neuhauser,  E. Neuscamman,  
 C. M. Oana,  R. Olson,  B. Peters,  R. Peverati,  P. A. Pieniazek,  
 Y. M. Rhee,  J. Ritchie,  M. A. Rohrdanz,  E. Rosta,  N. J. Russ,  
 H. F. Schaefer III,  N. E. Schultz,  N. Shenvi,  A. C. Simmonett,  A. Sodt,  
 D. Stuck,  K. S. Thanthiriwatte,  V. Vanovschi,  Tao Wang,  A. Warshel,  
 C. F. Williams,  Q. Wu,  X. Xu,  W. Zhang

 Please cite Q-Chem as follows:
 Y. Shao et al., Mol. Phys. 113, 184-215 (2015)
 DOI: 10.1080/00268976.2014.952696

 Q-Chem 5.1.0 for Intel X86 EM64T Linux

 Parts of Q-Chem use Armadillo 8.300.2 (Tropical Shenanigans).
 http://arma.sourceforge.net/

 Q-Chem begins on Mon Feb 11 10:39:20 2019  

Host: cori10
0

     Scratch files written to /tmp/qchem43383//
 Jun2518 |scratch|qcdevops|jenkins|workspace|build_RNUM -1
Processing $rem in /global/common/cori/software/qchem/5.1/config/preferences.
 MEM_TOTAL  96000 

Checking the input file for inconsistencies... 	...done.

--------------------------------------------------------------
User input:
--------------------------------------------------------------
$molecule
0 1
C   1.7783118842   0.6254035730   0.4521053315
O   0.3660887450   0.5085400684   0.4394919205
C  -0.0881741105  -0.6259719173  -0.2972206008
C  -1.6045485055  -0.5056187055  -0.3804669200
O  -1.9902499032   0.6999386068  -1.0263890609
H   2.0205484287   1.5254134253   1.0303573690
H   2.2554260162  -0.2489967785   0.9312920109
H   2.1893582582   0.7284284658  -0.5690461844
H   0.3470996332  -0.6196942731  -1.3138987534
H   0.2106174140  -1.5666963435   0.2036305978
H  -2.0086780123  -1.3355034632  -0.9758202434
H  -2.0261263760  -0.5778735930   0.6401599883
H  -1.4496734720   1.3926309349  -0.5980713856
$end

$rem
JOBTYPE                   OPT
METHOD                    wB97X-D3
BASIS                     def2-TZVP
UNRESTRICTED              TRUE
SCF_ALGORITHM             DIIS
MAX_SCF_CYCLES            100
SCF_CONVERGENCE           8
SYM_IGNORE                TRUE
SYMMETRY                  FALSE
GEOM_OPT_MAX_CYCLES       100
GEOM_OPT_TOL_GRADIENT     100
GEOM_OPT_TOL_DISPLACEMENT 400
GEOM_OPT_TOL_ENERGY       33
WAVEFUNCTION_ANALYSIS     FALSE
$end

--------------------------------------------------------------
 Adding empirical dispersion correction 
 ----------------------------------------------------------------
 Doing -D3(0) with
 s6  =   1.00000
 s8  =   1.00000
 rs6 =   1.28100
 rs8 =   1.09400
 -D3 energy without 3body term =     -0.0025194188 hartrees
 ----------------------------------------------------------------
             Standard Nuclear Orientation (Angstroms)
    I     Atom           X                Y                Z
 ----------------------------------------------------------------
    1      C       1.7783118842     0.6254035730     0.4521053315
    2      O       0.3660887450     0.5085400684     0.4394919205
    3      C      -0.0881741105    -0.6259719173    -0.2972206008
    4      C      -1.6045485055    -0.5056187055    -0.3804669200
    5      O      -1.9902499032     0.6999386068    -1.0263890609
    6      H       2.0205484287     1.5254134253     1.0303573690
    7      H       2.2554260162    -0.2489967785     0.9312920109
    8      H       2.1893582582     0.7284284658    -0.5690461844
    9      H       0.3470996332    -0.6196942731    -1.3138987534
   10      H       0.2106174140    -1.5666963435     0.2036305978
   11      H      -2.0086780123    -1.3355034632    -0.9758202434
   12      H      -2.0261263760    -0.5778735930     0.6401599883
   13      H      -1.4496734720     1.3926309349    -0.5980713856
 ----------------------------------------------------------------
 Nuclear Repulsion Energy =   192.5670781955 hartrees
 There are       21 alpha and       21 beta electrons
 Requested basis set is def2-TZVP
 There are 87 shells and 203 basis functions

 Total QAlloc Memory Limit  96000 MB
 Mega-Array Size       188 MB
 MEM_STATIC part       192 MB
 A cutoff of  1.0D-11 yielded   3574 shell pairs
 There are     19748 function pairs (     24999 Cartesian)
 
 -------------------------------------------------------
 OpenMP Integral Computing Module                       
 Release: version 1.0, May 2013, Q-Chem Inc. Pittsburgh 
 -------------------------------------------------------
 Integral Job Info:
 Integral job number is                      11
 Integral operator is                         1
 short-range coefficients              19572800
 long-range coefficients              100000000
 Omega coefficients                         250
 if combine SR and LR in K                    1
 Integral screening is                        0
 Integral computing path is                   2
 max size of driver memory is            800000
 size of driver memory is                776718
 size of scratch memory is              4473992
 max col of scratch BK array              10000
 max len of scratch array in speh3          662
 max len of scratch index in speh4           32
 max int batch size is                      520
 min int batch size is                       52
 fixed nKL is                                52
 max L of basis functions is                  3
 order of int derivative is                   0
 number of shells is                         87
 number of basis is                         228
 number of cartesian basis is               228
 number of contracted shell pairs          3574
 number of primitive shell pairs           8133
 maxK2 (contraction) of shell pair           36
 max number of K2 of shell pair               1
 max number of CS2 of shell pair            570
 max number of PS2 of shell pair           1014
 mem total for path MDJ                  563348
 -------------------------------------------------------
 Smallest overlap matrix eigenvalue = 4.79E-04

 Scale SEOQF with 1.000000e-01/1.000000e-01/1.000000e+00

 Standard Electronic Orientation quadrupole field applied
 Nucleus-field energy     =    -0.0000000148 hartrees
 Guess from superposition of atomic densities
 Warning:  Energy on first SCF cycle will be non-variational
 SAD guess density has 42.000000 electrons

 -----------------------------------------------------------------------
  General SCF calculation program by
  Eric Jon Sundstrom, Paul Horn, Yuezhi Mao, Dmitri Zuev, Alec White,
  David Stuck, Shaama M.S., Shane Yost, Joonho Lee, David Small,
  Daniel Levine, Susi Lehtola, Hugh Burton, Evgeny Epifanovsky
 -----------------------------------------------------------------------
 Exchange:     0.1957 Hartree-Fock + 1.0000 wB97X-D3 + LR-HF
 Correlation:  1.0000 wB97X-D3
 Using SG-2 standard quadrature grid
 Dispersion:   Grimme D3
 using 16 threads for integral computing
 -------------------------------------------------------
 OpenMP Integral computing Module                
 Release: version 1.0, May 2013, Q-Chem Inc. Pittsburgh 
 -------------------------------------------------------
 using 16 threads for integral computing
 -------------------------------------------------------
 OpenMP Integral computing Module                
 Release: version 1.0, May 2013, Q-Chem Inc. Pittsburgh 
 -------------------------------------------------------
 -------------------------------------------------------
 OpenMP BLAS3 based DFT computing Module                
 Release: version 1.0, May 2013, Q-Chem Inc. Pittsburgh 
 -------------------------------------------------------
 A unrestricted SCF calculation will be
 performed using DIIS
 SCF converges when DIIS error is below 1.0e-08
 ---------------------------------------
  Cycle       Energy         DIIS error
 ---------------------------------------
    1    -270.4276014769      1.84e-02  
    2    -269.5144904824      2.14e-03  
    3    -269.5202841236      2.27e-03  
    4    -269.5880446606      1.78e-04  
    5    -269.5885449243      5.87e-05  
    6    -269.5886038197      2.47e-05  
    7    -269.5886128535      6.85e-06  
    8    -269.5886135634      1.91e-06  
    9    -269.5886136457      3.22e-07  
   10    -269.5886136497      1.19e-07  
   11    -269.5886136501      3.53e-08  
   12    -269.5886136501      6.62e-09  Convergence criterion met
 ---------------------------------------
 SCF time:   CPU 249.14s  wall 34.00s 
<S^2> =          0.000000000
 SCF   energy in the final basis set =     -269.5886136501
 Total energy in the final basis set =     -269.5886136501
 No wavefunction analysis requested
 Calculating analytic gradient of the SCF energy
 Gradient of SCF Energy
            1           2           3           4           5           6
    1   0.0023908  -0.0073536   0.0015395  -0.0008604  -0.0124164   0.0006480
    2  -0.0008486   0.0092665  -0.0053719   0.0014888  -0.0026572   0.0043451
    3  -0.0007974   0.0063431  -0.0018071   0.0019412  -0.0131418   0.0027776
            7           8           9          10          11          12
    1   0.0033243   0.0030467   0.0014410   0.0017764  -0.0015666  -0.0013326
    2  -0.0039208   0.0003256  -0.0008660  -0.0048568  -0.0031822  -0.0021245
    3   0.0019849  -0.0047177  -0.0045800   0.0016060  -0.0026682   0.0056180
           13
    1   0.0093628
    2   0.0084019
    3   0.0074415
 Max gradient component =       1.314E-02
 RMS gradient           =       5.002E-03
 Gradient time:  CPU 43.15 s  wall 5.93 s
 Geometry Optimization Parameters
   NAtoms,    NIC,     NZ,  NCons,   NDum,   NFix, NCnnct, MaxDiis
       13      76       0       0       0       0       0       0


** GEOMETRY OPTIMIZATION IN DELOCALIZED INTERNAL COORDINATES **
   Searching for a Minimum

   Optimization Cycle:   1

                       Coordinates (Angstroms)
     ATOM                X               Y               Z
      1  C         1.7783118842    0.6254035730    0.4521053315
      2  O         0.3660887450    0.5085400684    0.4394919205
      3  C        -0.0881741105   -0.6259719173   -0.2972206008
      4  C        -1.6045485055   -0.5056187055   -0.3804669200
      5  O        -1.9902499032    0.6999386068   -1.0263890609
      6  H         2.0205484287    1.5254134253    1.0303573690
      7  H         2.2554260162   -0.2489967785    0.9312920109
      8  H         2.1893582582    0.7284284658   -0.5690461844
      9  H         0.3470996332   -0.6196942731   -1.3138987534
     10  H         0.2106174140   -1.5666963435    0.2036305978
     11  H        -2.0086780123   -1.3355034632   -0.9758202434
     12  H        -2.0261263760   -0.5778735930    0.6401599883
     13  H        -1.4496734720    1.3926309349   -0.5980713856
   Point Group: c1    Number of degrees of freedom:    33


   Energy is   -269.588613650


 Attempting to Generate Delocalized Internal Coordinates

 33 Hessian modes will be used to form the next step
  Hessian Eigenvalues:
     0.006081    0.012079    0.012862    0.013383    0.050930    0.055695
     0.059880    0.060567    0.099857    0.104712    0.109484    0.114260
     0.134948    0.138613    0.160000    0.160000    0.160000    0.160000
     0.219546    0.220457    0.250000    0.300396    0.329371    0.329595
     0.330320    0.330717    0.330956    0.338601    0.340333    0.414291
     0.423044    0.428991    0.518739

 Minimum Search - Taking Simple RFO Step
 Searching for Lamda that Minimizes Along All modes
 Value Taken    Lamda =  -0.00212249
 Step Taken.  Stepsize is  0.097109

                             Maximum     Tolerance    Cnvgd?
         Gradient           0.012960      0.000100      NO
         Displacement       0.038783      0.000400      NO
         Energy change     *********      0.000000      NO


 New Cartesian Coordinates Obtained by Inverse Iteration

 Displacement from previous Coordinates is:  0.149176
 Adding empirical dispersion correction 
 ----------------------------------------------------------------
 Doing -D3(0) with
 s6  =   1.00000
 s8  =   1.00000
 rs6 =   1.28100
 rs8 =   1.09400
 -D3 energy without 3body term =     -0.0024904557 hartrees
 ----------------------------------------------------------------
             Standard Nuclear Orientation (Angstroms)
    I     Atom           X                Y                Z
 ----------------------------------------------------------------
    1      C       1.7719209145     0.6159198435     0.4516635613
    2      O       0.3704664861     0.5094465443     0.4320225980
    3      C      -0.0839417789    -0.6111960720    -0.2992188557
    4      C      -1.5894930879    -0.5069418074    -0.3783122950
    5      O      -1.9853734567     0.6849455942    -1.0207919996
    6      H       2.0250013719     1.5041236590     1.0284010069
    7      H       2.2277275865    -0.2618696814     0.9256634447
    8      H       2.1760395921     0.7153756983    -0.5631380267
    9      H       0.3515916716    -0.5994338120    -1.3074684961
   10      H       0.2160092167    -1.5414133924     0.2018128035
   11      H      -1.9874950268    -1.3398147936    -0.9608238284
   12      H      -2.0108229478    -0.5627612036     0.6333851603
   13      H      -1.4816305413     1.3936194230    -0.6070710038
 ----------------------------------------------------------------
 Nuclear Repulsion Energy =   193.9466442319 hartrees
 There are       21 alpha and       21 beta electrons
 Applying Cartesian multipole field
    Component          Value
    ---------          -----
     (2,0,0)        1.00000E-11
     (0,2,0)        2.00000E-11
     (0,0,2)       -3.00000E-10
 Nucleus-field energy     =    -0.0000000146 hartrees
 Requested basis set is def2-TZVP
 There are 87 shells and 203 basis functions
 A cutoff of  1.0D-11 yielded   3576 shell pairs
 There are     19780 function pairs (     25040 Cartesian)
 Smallest overlap matrix eigenvalue = 4.51E-04
 Guess MOs from SCF MO coefficient file
 Reading MOs from coefficient file
 Reading MOs from coefficient file

 -----------------------------------------------------------------------
  General SCF calculation program by
  Eric Jon Sundstrom, Paul Horn, Yuezhi Mao, Dmitri Zuev, Alec White,
  David Stuck, Shaama M.S., Shane Yost, Joonho Lee, David Small,
  Daniel Levine, Susi Lehtola, Hugh Burton, Evgeny Epifanovsky
 -----------------------------------------------------------------------
 Exchange:     0.1957 Hartree-Fock + 1.0000 wB97X-D3 + LR-HF
 Correlation:  1.0000 wB97X-D3
 Using SG-2 standard quadrature grid
 Dispersion:   Grimme D3
 using 16 threads for integral computing
 -------------------------------------------------------
 OpenMP Integral computing Module                
 Release: version 1.0, May 2013, Q-Chem Inc. Pittsburgh 
 -------------------------------------------------------
 using 16 threads for integral computing
 -------------------------------------------------------
 OpenMP Integral computing Module                
 Release: version 1.0, May 2013, Q-Chem Inc. Pittsburgh 
 -------------------------------------------------------
 -------------------------------------------------------
 OpenMP BLAS3 based DFT computing Module                
 Release: version 1.0, May 2013, Q-Chem Inc. Pittsburgh 
 -------------------------------------------------------
 A unrestricted SCF calculation will be
 performed using DIIS
 SCF converges when DIIS error is below 1.0e-08
 ---------------------------------------
  Cycle       Energy         DIIS error
 ---------------------------------------
    1    -269.6303575544      2.96e-04  
    2    -269.5896538542      6.00e-05  
    3    -269.5897088802      4.00e-05  
    4    -269.5897358958      8.39e-06  
    5    -269.5897370111      4.17e-06  
    6    -269.5897373308      9.33e-07  
    7    -269.5897373589      2.52e-07  
    8    -269.5897373607      1.22e-07  
    9    -269.5897373611      3.32e-08  
   10    -269.5897373611      1.20e-08  
   11    -269.5897373611      2.17e-09  Convergence criterion met
 ---------------------------------------
 SCF time:   CPU 203.29s  wall 27.00s 
<S^2> =          0.000000000
 SCF   energy in the final basis set =     -269.5897373611
 Total energy in the final basis set =     -269.5897373611
 No wavefunction analysis requested
 Calculating analytic gradient of the SCF energy
 Gradient of SCF Energy
            1           2           3           4           5           6
    1   0.0020803  -0.0010987   0.0001857  -0.0001739  -0.0011513  -0.0003440
    2   0.0000238   0.0015086  -0.0023839  -0.0011422   0.0001137  -0.0000252
    3  -0.0003581   0.0013097  -0.0021586   0.0010233  -0.0007756  -0.0000208
            7           8           9          10          11          12
    1  -0.0005288  -0.0004918   0.0001912  -0.0000399   0.0001599  -0.0000675
    2   0.0000448  -0.0001874   0.0002712   0.0008218  -0.0000174   0.0003252
    3  -0.0001466   0.0001000   0.0004388   0.0002137  -0.0001090  -0.0002283
           13
    1   0.0012788
    2   0.0006470
    3   0.0007114
 Max gradient component =       2.384E-03
 RMS gradient           =       8.601E-04
 Gradient time:  CPU 44.78 s  wall 6.11 s
 Geometry Optimization Parameters
   NAtoms,    NIC,     NZ,  NCons,   NDum,   NFix, NCnnct, MaxDiis
       13      76       0       0       0       0       0       0

 Cartesian Hessian Update
 Hessian Updated using BFGS Update


** GEOMETRY OPTIMIZATION IN DELOCALIZED INTERNAL COORDINATES **
   Searching for a Minimum

   Optimization Cycle:   2

                       Coordinates (Angstroms)
     ATOM                X               Y               Z
      1  C         1.7719209145    0.6159198435    0.4516635613
      2  O         0.3704664861    0.5094465443    0.4320225980
      3  C        -0.0839417789   -0.6111960720   -0.2992188557
      4  C        -1.5894930879   -0.5069418074   -0.3783122950
      5  O        -1.9853734567    0.6849455942   -1.0207919996
      6  H         2.0250013719    1.5041236590    1.0284010069
      7  H         2.2277275865   -0.2618696814    0.9256634447
      8  H         2.1760395921    0.7153756983   -0.5631380267
      9  H         0.3515916716   -0.5994338120   -1.3074684961
     10  H         0.2160092167   -1.5414133924    0.2018128035
     11  H        -1.9874950268   -1.3398147936   -0.9608238284
     12  H        -2.0108229478   -0.5627612036    0.6333851603
     13  H        -1.4816305413    1.3936194230   -0.6070710038
   Point Group: c1    Number of degrees of freedom:    33


   Energy is   -269.589737361

 Hessian Updated using BFGS Update

 31 Hessian modes will be used to form the next step
  Hessian Eigenvalues:
     0.006053    0.012029    0.012735    0.013377    0.051462    0.055823
     0.060054    0.061034    0.100015    0.104711    0.109663    0.114240
     0.135013    0.139162    0.154548    0.162413    0.214127    0.220996
     0.248928    0.302093    0.329218    0.329960    0.330486    0.330857
     0.336963    0.339413    0.351558    0.398410    0.422109    0.427860
     0.507617

 Minimum Search - Taking Simple RFO Step
 Searching for Lamda that Minimizes Along All modes
 Value Taken    Lamda =  -0.00010474
 Step Taken.  Stepsize is  0.059163

                             Maximum     Tolerance    Cnvgd?
         Gradient           0.001794      0.000100      NO
         Displacement       0.030401      0.000400      NO
         Energy change     -0.001124      0.000000      NO


 New Cartesian Coordinates Obtained by Inverse Iteration

 Displacement from previous Coordinates is:  0.107121
 Adding empirical dispersion correction 
 ----------------------------------------------------------------
 Doing -D3(0) with
 s6  =   1.00000
 s8  =   1.00000
 rs6 =   1.28100
 rs8 =   1.09400
 -D3 energy without 3body term =     -0.0024930767 hartrees
 ----------------------------------------------------------------
             Standard Nuclear Orientation (Angstroms)
    I     Atom           X                Y                Z
 ----------------------------------------------------------------
    1      C       1.7788842755     0.6116903544     0.4563865904
    2      O       0.3785347152     0.5110923795     0.4286983862
    3      C      -0.0830065751    -0.6040469148    -0.3015790558
    4      C      -1.5887056196    -0.5039951310    -0.3760230872
    5      O      -1.9987554982     0.6749578938    -1.0304994862
    6      H       2.0340104591     1.4964249443     1.0371984030
    7      H       2.2317792347    -0.2679199417     0.9301505452
    8      H       2.1917139909     0.7145425647    -0.5546875347
    9      H       0.3450325013    -0.5927902042    -1.3132659415
   10      H       0.2174936770    -1.5384723019     0.1926673000
   11      H      -1.9842946788    -1.3445803890    -0.9483859583
   12      H      -2.0058000628    -0.5556911718     0.6375816977
   13      H      -1.5168864193     1.3987879179    -0.6221177894
 ----------------------------------------------------------------
 Nuclear Repulsion Energy =   193.7650666020 hartrees
 There are       21 alpha and       21 beta electrons
 Applying Cartesian multipole field
    Component          Value
    ---------          -----
     (2,0,0)        1.00000E-11
     (0,2,0)        2.00000E-11
     (0,0,2)       -3.00000E-10
 Nucleus-field energy     =    -0.0000000148 hartrees
 Requested basis set is def2-TZVP
 There are 87 shells and 203 basis functions
 A cutoff of  1.0D-11 yielded   3574 shell pairs
 There are     19764 function pairs (     25021 Cartesian)
 Smallest overlap matrix eigenvalue = 4.51E-04
 Guess MOs from SCF MO coefficient file
 Reading MOs from coefficient file
 Reading MOs from coefficient file

 -----------------------------------------------------------------------
  General SCF calculation program by
  Eric Jon Sundstrom, Paul Horn, Yuezhi Mao, Dmitri Zuev, Alec White,
  David Stuck, Shaama M.S., Shane Yost, Joonho Lee, David Small,
  Daniel Levine, Susi Lehtola, Hugh Burton, Evgeny Epifanovsky
 -----------------------------------------------------------------------
 Exchange:     0.1957 Hartree-Fock + 1.0000 wB97X-D3 + LR-HF
 Correlation:  1.0000 wB97X-D3
 Using SG-2 standard quadrature grid
 Dispersion:   Grimme D3
 using 16 threads for integral computing
 -------------------------------------------------------
 OpenMP Integral computing Module                
 Release: version 1.0, May 2013, Q-Chem Inc. Pittsburgh 
 -------------------------------------------------------
 using 16 threads for integral computing
 -------------------------------------------------------
 OpenMP Integral computing Module                
 Release: version 1.0, May 2013, Q-Chem Inc. Pittsburgh 
 -------------------------------------------------------
 -------------------------------------------------------
 OpenMP BLAS3 based DFT computing Module                
 Release: version 1.0, May 2013, Q-Chem Inc. Pittsburgh 
 -------------------------------------------------------
 A unrestricted SCF calculation will be
 performed using DIIS
 SCF converges when DIIS error is below 1.0e-08
 ---------------------------------------
  Cycle       Energy         DIIS error
 ---------------------------------------
    1    -269.5913587574      1.36e-04  
    2    -269.5897879206      1.98e-05  
    3    -269.5898007277      7.65e-06  
    4    -269.5898017254      4.89e-06  
    5    -269.5898021136      1.17e-06  
    6    -269.5898021413      2.76e-07  
    7    -269.5898021435      7.85e-08  
    8    -269.5898021437      3.77e-08  
    9    -269.5898021438      1.27e-08  
   10    -269.5898021438      2.24e-09  Convergence criterion met
 ---------------------------------------
 SCF time:   CPU 197.13s  wall 28.00s 
<S^2> =          0.000000000
 SCF   energy in the final basis set =     -269.5898021438
 Total energy in the final basis set =     -269.5898021438
 No wavefunction analysis requested
 Calculating analytic gradient of the SCF energy
 Gradient of SCF Energy
            1           2           3           4           5           6
    1   0.0009669  -0.0001124  -0.0002216  -0.0000544  -0.0001215  -0.0000721
    2   0.0001433   0.0003146  -0.0009914  -0.0004655   0.0005813  -0.0002296
    3  -0.0000592   0.0004187  -0.0008265   0.0003890   0.0003038  -0.0001657
            7           8           9          10          11          12
    1  -0.0001929  -0.0002221  -0.0000880  -0.0000020   0.0000914   0.0000175
    2   0.0002513  -0.0000221   0.0000964   0.0005005   0.0003175  -0.0000256
    3  -0.0001046   0.0002611   0.0003965   0.0000777  -0.0000141  -0.0003460
           13
    1   0.0000111
    2  -0.0004708
    3  -0.0003306
 Max gradient component =       9.914E-04
 RMS gradient           =       3.610E-04
 Gradient time:  CPU 44.22 s  wall 5.97 s
 Geometry Optimization Parameters
   NAtoms,    NIC,     NZ,  NCons,   NDum,   NFix, NCnnct, MaxDiis
       13      76       0       0       0       0       0       0

 Cartesian Hessian Update
 Hessian Updated using BFGS Update


** GEOMETRY OPTIMIZATION IN DELOCALIZED INTERNAL COORDINATES **
   Searching for a Minimum

   Optimization Cycle:   3

                       Coordinates (Angstroms)
     ATOM                X               Y               Z
      1  C         1.7788842755    0.6116903544    0.4563865904
      2  O         0.3785347152    0.5110923795    0.4286983862
      3  C        -0.0830065751   -0.6040469148   -0.3015790558
      4  C        -1.5887056196   -0.5039951310   -0.3760230872
      5  O        -1.9987554982    0.6749578938   -1.0304994862
      6  H         2.0340104591    1.4964249443    1.0371984030
      7  H         2.2317792347   -0.2679199417    0.9301505452
      8  H         2.1917139909    0.7145425647   -0.5546875347
      9  H         0.3450325013   -0.5927902042   -1.3132659415
     10  H         0.2174936770   -1.5384723019    0.1926673000
     11  H        -1.9842946788   -1.3445803890   -0.9483859583
     12  H        -2.0058000628   -0.5556911718    0.6375816977
     13  H        -1.5168864193    1.3987879179   -0.6221177894
   Point Group: c1    Number of degrees of freedom:    33


   Energy is   -269.589802144

 Hessian Updated using BFGS Update

 32 Hessian modes will be used to form the next step
  Hessian Eigenvalues:
     0.005398    0.010054    0.012295    0.013372    0.052325    0.055754
     0.057772    0.060539    0.100179    0.104719    0.108157    0.114545
     0.134897    0.139475    0.153923    0.160229    0.162006    0.219504
     0.224281    0.257174    0.303925    0.328755    0.329970    0.330561
     0.330869    0.333563    0.339403    0.344128    0.389636    0.422392
     0.428165    0.536876

 Minimum Search - Taking Simple RFO Step
 Searching for Lamda that Minimizes Along All modes
 Value Taken    Lamda =  -0.00002832
 Step Taken.  Stepsize is  0.053480

                             Maximum     Tolerance    Cnvgd?
         Gradient           0.000636      0.000100      NO
         Displacement       0.032456      0.000400      NO
         Energy change     -0.000065      0.000000      NO


 New Cartesian Coordinates Obtained by Inverse Iteration

 Displacement from previous Coordinates is:  0.070260
 Adding empirical dispersion correction 
 ----------------------------------------------------------------
 Doing -D3(0) with
 s6  =   1.00000
 s8  =   1.00000
 rs6 =   1.28100
 rs8 =   1.09400
 -D3 energy without 3body term =     -0.0024933384 hartrees
 ----------------------------------------------------------------
             Standard Nuclear Orientation (Angstroms)
    I     Atom           X                Y                Z
 ----------------------------------------------------------------
    1      C       1.7808315970     0.6086826408     0.4591162040
    2      O       0.3814627984     0.5137939114     0.4242688377
    3      C      -0.0810335151    -0.5993068855    -0.3049800998
    4      C      -1.5867929648    -0.5022354987    -0.3747144291
    5      O      -2.0039108275     0.6687193474    -1.0376557394
    6      H       2.0369235618     1.4918648200     1.0426958099
    7      H       2.2291031046    -0.2733691362     0.9341010604
    8      H       2.2007818281     0.7116342951    -0.5496707571
    9      H       0.3426267275    -0.5881164604    -1.3193551233
   10      H       0.2202539788    -1.5366124670     0.1851504379
   11      H      -1.9816932404    -1.3500445566    -0.9375749792
   12      H      -1.9995411840    -0.5473019659     0.6415932956
   13      H      -1.5390118645     1.4022919557    -0.6268504480
 ----------------------------------------------------------------
 Nuclear Repulsion Energy =   193.7276622984 hartrees
 There are       21 alpha and       21 beta electrons
 Applying Cartesian multipole field
    Component          Value
    ---------          -----
     (2,0,0)        1.00000E-11
     (0,2,0)        2.00000E-11
     (0,0,2)       -3.00000E-10
 Nucleus-field energy     =    -0.0000000150 hartrees
 Requested basis set is def2-TZVP
 There are 87 shells and 203 basis functions
 A cutoff of  1.0D-11 yielded   3573 shell pairs
 There are     19759 function pairs (     25015 Cartesian)
 Smallest overlap matrix eigenvalue = 4.49E-04
 Guess MOs from SCF MO coefficient file
 Reading MOs from coefficient file
 Reading MOs from coefficient file

 -----------------------------------------------------------------------
  General SCF calculation program by
  Eric Jon Sundstrom, Paul Horn, Yuezhi Mao, Dmitri Zuev, Alec White,
  David Stuck, Shaama M.S., Shane Yost, Joonho Lee, David Small,
  Daniel Levine, Susi Lehtola, Hugh Burton, Evgeny Epifanovsky
 -----------------------------------------------------------------------
 Exchange:     0.1957 Hartree-Fock + 1.0000 wB97X-D3 + LR-HF
 Correlation:  1.0000 wB97X-D3
 Using SG-2 standard quadrature grid
 Dispersion:   Grimme D3
 using 16 threads for integral computing
 -------------------------------------------------------
 OpenMP Integral computing Module                
 Release: version 1.0, May 2013, Q-Chem Inc. Pittsburgh 
 -------------------------------------------------------
 using 16 threads for integral computing
 -------------------------------------------------------
 OpenMP Integral computing Module                
 Release: version 1.0, May 2013, Q-Chem Inc. Pittsburgh 
 -------------------------------------------------------
 -------------------------------------------------------
 OpenMP BLAS3 based DFT computing Module                
 Release: version 1.0, May 2013, Q-Chem Inc. Pittsburgh 
 -------------------------------------------------------
 A unrestricted SCF calculation will be
 performed using DIIS
 SCF converges when DIIS error is below 1.0e-08
 ---------------------------------------
  Cycle       Energy         DIIS error
 ---------------------------------------
    1    -269.5894972876      9.23e-05  
    2    -269.5898108270      1.45e-05  
    3    -269.5898174570      7.28e-06  
    4    -269.5898181947      4.11e-06  
    5    -269.5898184748      6.21e-07  
    6    -269.5898184877      1.45e-07  
    7    -269.5898184886      7.02e-08  
    8    -269.5898184888      2.34e-08  
    9    -269.5898184888      8.73e-09  Convergence criterion met
 ---------------------------------------
 SCF time:   CPU 178.01s  wall 24.00s 
<S^2> =          0.000000000
 SCF   energy in the final basis set =     -269.5898184888
 Total energy in the final basis set =     -269.5898184888
 No wavefunction analysis requested
 Calculating analytic gradient of the SCF energy
 Gradient of SCF Energy
            1           2           3           4           5           6
    1  -0.0001665   0.0000756  -0.0000054   0.0001154   0.0001011  -0.0000099
    2  -0.0000749  -0.0000662   0.0001072   0.0001078   0.0001247  -0.0000194
    3  -0.0001042  -0.0000280   0.0000588  -0.0000238   0.0004244  -0.0000213
            7           8           9          10          11          12
    1   0.0000242   0.0000142  -0.0000400  -0.0000737   0.0001213  -0.0000757
    2   0.0000398   0.0000344  -0.0000327  -0.0000135  -0.0000159  -0.0000604
    3   0.0000174   0.0000139  -0.0000089  -0.0000097  -0.0000169  -0.0000372
           13
    1  -0.0000808
    2  -0.0001307
    3  -0.0002647
 Max gradient component =       4.244E-04
 RMS gradient           =       1.056E-04
 Gradient time:  CPU 43.69 s  wall 6.07 s
 Geometry Optimization Parameters
   NAtoms,    NIC,     NZ,  NCons,   NDum,   NFix, NCnnct, MaxDiis
       13      76       0       0       0       0       0       0

 Cartesian Hessian Update
 Hessian Updated using BFGS Update


** GEOMETRY OPTIMIZATION IN DELOCALIZED INTERNAL COORDINATES **
   Searching for a Minimum

   Optimization Cycle:   4

                       Coordinates (Angstroms)
     ATOM                X               Y               Z
      1  C         1.7808315970    0.6086826408    0.4591162040
      2  O         0.3814627984    0.5137939114    0.4242688377
      3  C        -0.0810335151   -0.5993068855   -0.3049800998
      4  C        -1.5867929648   -0.5022354987   -0.3747144291
      5  O        -2.0039108275    0.6687193474   -1.0376557394
      6  H         2.0369235618    1.4918648200    1.0426958099
      7  H         2.2291031046   -0.2733691362    0.9341010604
      8  H         2.2007818281    0.7116342951   -0.5496707571
      9  H         0.3426267275   -0.5881164604   -1.3193551233
     10  H         0.2202539788   -1.5366124670    0.1851504379
     11  H        -1.9816932404   -1.3500445566   -0.9375749792
     12  H        -1.9995411840   -0.5473019659    0.6415932956
     13  H        -1.5390118645    1.4022919557   -0.6268504480
   Point Group: c1    Number of degrees of freedom:    33


   Energy is   -269.589818489

 Hessian Updated using BFGS Update

 33 Hessian modes will be used to form the next step
  Hessian Eigenvalues:
     0.004303    0.008620    0.012238    0.013373    0.052267    0.055866
     0.059624    0.060998    0.100409    0.104719    0.110938    0.115318
     0.135239    0.141523    0.159349    0.160023    0.161535    0.163672
     0.221484    0.224415    0.257828    0.305138    0.329193    0.329993
     0.330619    0.330882    0.335884    0.339510    0.347670    0.403201
     0.422263    0.431801    0.529733

 Minimum Search - Taking Simple RFO Step
 Searching for Lamda that Minimizes Along All modes
 Value Taken    Lamda =  -0.00000461
 Step Taken.  Stepsize is  0.026144

                             Maximum     Tolerance    Cnvgd?
         Gradient           0.000245      0.000100      NO
         Displacement       0.016957      0.000400      NO
         Energy change     -0.000016      0.000000      NO


 New Cartesian Coordinates Obtained by Inverse Iteration

 Displacement from previous Coordinates is:  0.029463
 Adding empirical dispersion correction 
 ----------------------------------------------------------------
 Doing -D3(0) with
 s6  =   1.00000
 s8  =   1.00000
 rs6 =   1.28100
 rs8 =   1.09400
 -D3 energy without 3body term =     -0.0024929903 hartrees
 ----------------------------------------------------------------
             Standard Nuclear Orientation (Angstroms)
    I     Atom           X                Y                Z
 ----------------------------------------------------------------
    1      C       1.7820237446     0.6077537730     0.4604845814
    2      O       0.3825983520     0.5149479852     0.4228415291
    3      C      -0.0803543983    -0.5976358449    -0.3066142002
    4      C      -1.5866069023    -0.5019261937    -0.3746109422
    5      O      -2.0058167493     0.6657872443    -1.0418679032
    6      H       2.0389141547     1.4898962697     1.0454691558
    7      H       2.2280143138    -0.2758221690     0.9350229608
    8      H       2.2039914816     0.7108187814    -0.5475656121
    9      H       0.3422513088    -0.5857258274    -1.3215608733
   10      H       0.2225038669    -1.5351965921     0.1824098548
   11      H      -1.9826955382    -1.3522666232    -0.9329485562
   12      H      -1.9970182819    -0.5428128328     0.6429174701
   13      H      -1.5478053522     1.4021820297    -0.6278533953
 ----------------------------------------------------------------
 Nuclear Repulsion Energy =   193.6803720593 hartrees
 There are       21 alpha and       21 beta electrons
 Applying Cartesian multipole field
    Component          Value
    ---------          -----
     (2,0,0)        1.00000E-11
     (0,2,0)        2.00000E-11
     (0,0,2)       -3.00000E-10
 Nucleus-field energy     =    -0.0000000150 hartrees
 Requested basis set is def2-TZVP
 There are 87 shells and 203 basis functions
 A cutoff of  1.0D-11 yielded   3573 shell pairs
 There are     19759 function pairs (     25015 Cartesian)
 Smallest overlap matrix eigenvalue = 4.50E-04
 Guess MOs from SCF MO coefficient file
 Reading MOs from coefficient file
 Reading MOs from coefficient file

 -----------------------------------------------------------------------
  General SCF calculation program by
  Eric Jon Sundstrom, Paul Horn, Yuezhi Mao, Dmitri Zuev, Alec White,
  David Stuck, Shaama M.S., Shane Yost, Joonho Lee, David Small,
  Daniel Levine, Susi Lehtola, Hugh Burton, Evgeny Epifanovsky
 -----------------------------------------------------------------------
 Exchange:     0.1957 Hartree-Fock + 1.0000 wB97X-D3 + LR-HF
 Correlation:  1.0000 wB97X-D3
 Using SG-2 standard quadrature grid
 Dispersion:   Grimme D3
 using 16 threads for integral computing
 -------------------------------------------------------
 OpenMP Integral computing Module                
 Release: version 1.0, May 2013, Q-Chem Inc. Pittsburgh 
 -------------------------------------------------------
 using 16 threads for integral computing
 -------------------------------------------------------
 OpenMP Integral computing Module                
 Release: version 1.0, May 2013, Q-Chem Inc. Pittsburgh 
 -------------------------------------------------------
 -------------------------------------------------------
 OpenMP BLAS3 based DFT computing Module                
 Release: version 1.0, May 2013, Q-Chem Inc. Pittsburgh 
 -------------------------------------------------------
 A unrestricted SCF calculation will be
 performed using DIIS
 SCF converges when DIIS error is below 1.0e-08
 ---------------------------------------
  Cycle       Energy         DIIS error
 ---------------------------------------
    1    -269.5893205087      3.74e-05  
    2    -269.5898199475      5.86e-06  
    3    -269.5898211839      1.58e-06  
    4    -269.5898212684      7.66e-07  
    5    -269.5898212817      3.40e-07  
    6    -269.5898212839      9.03e-08  
    7    -269.5898212841      3.18e-08  
    8    -269.5898212841      8.00e-09  Convergence criterion met
 ---------------------------------------
 SCF time:   CPU 175.83s  wall 22.00s 
<S^2> =          0.000000000
 SCF   energy in the final basis set =     -269.5898212841
 Total energy in the final basis set =     -269.5898212841
 No wavefunction analysis requested
 Calculating analytic gradient of the SCF energy
 Gradient of SCF Energy
            1           2           3           4           5           6
    1  -0.0002153   0.0001468  -0.0000067  -0.0000202  -0.0000450   0.0000586
    2   0.0000210  -0.0001937   0.0002974   0.0002082  -0.0001495   0.0000351
    3   0.0000155  -0.0001330   0.0001815  -0.0000948   0.0001421   0.0000147
            7           8           9          10          11          12
    1   0.0000439   0.0000293   0.0000204  -0.0000063   0.0000074  -0.0000529
    2  -0.0000197   0.0000103  -0.0000337  -0.0000676  -0.0000474  -0.0000387
    3   0.0000048  -0.0000403  -0.0000588  -0.0000066  -0.0000339   0.0000307
           13
    1   0.0000400
    2  -0.0000218
    3  -0.0000219
 Max gradient component =       2.974E-04
 RMS gradient           =       9.782E-05
 Gradient time:  CPU 44.28 s  wall 6.46 s
 Geometry Optimization Parameters
   NAtoms,    NIC,     NZ,  NCons,   NDum,   NFix, NCnnct, MaxDiis
       13      76       0       0       0       0       0       0

 Cartesian Hessian Update
 Hessian Updated using BFGS Update


** GEOMETRY OPTIMIZATION IN DELOCALIZED INTERNAL COORDINATES **
   Searching for a Minimum

   Optimization Cycle:   5

                       Coordinates (Angstroms)
     ATOM                X               Y               Z
      1  C         1.7820237446    0.6077537730    0.4604845814
      2  O         0.3825983520    0.5149479852    0.4228415291
      3  C        -0.0803543983   -0.5976358449   -0.3066142002
      4  C        -1.5866069023   -0.5019261937   -0.3746109422
      5  O        -2.0058167493    0.6657872443   -1.0418679032
      6  H         2.0389141547    1.4898962697    1.0454691558
      7  H         2.2280143138   -0.2758221690    0.9350229608
      8  H         2.2039914816    0.7108187814   -0.5475656121
      9  H         0.3422513088   -0.5857258274   -1.3215608733
     10  H         0.2225038669   -1.5351965921    0.1824098548
     11  H        -1.9826955382   -1.3522666232   -0.9329485562
     12  H        -1.9970182819   -0.5428128328    0.6429174701
     13  H        -1.5478053522    1.4021820297   -0.6278533953
   Point Group: c1    Number of degrees of freedom:    33


   Energy is   -269.589821284

 Hessian Updated using BFGS Update

 33 Hessian modes will be used to form the next step
  Hessian Eigenvalues:
     0.003340    0.007964    0.012163    0.013372    0.051901    0.055884
     0.059174    0.060687    0.100926    0.104722    0.110482    0.115612
     0.135222    0.138226    0.157448    0.160033    0.161980    0.167026
     0.220779    0.231097    0.259713    0.321888    0.329519    0.330105
     0.330612    0.330881    0.335905    0.339514    0.355351    0.393916
     0.422363    0.435486    0.536822

 Minimum Search - Taking Simple RFO Step
 Searching for Lamda that Minimizes Along All modes
 Value Taken    Lamda =  -0.00000138
 Step Taken.  Stepsize is  0.014133

                             Maximum     Tolerance    Cnvgd?
         Gradient           0.000164      0.000100      NO
         Displacement       0.009273      0.000400      NO
         Energy change     -0.000003      0.000000      NO


 New Cartesian Coordinates Obtained by Inverse Iteration

 Displacement from previous Coordinates is:  0.011940
 Adding empirical dispersion correction 
 ----------------------------------------------------------------
 Doing -D3(0) with
 s6  =   1.00000
 s8  =   1.00000
 rs6 =   1.28100
 rs8 =   1.09400
 -D3 energy without 3body term =     -0.0024930532 hartrees
 ----------------------------------------------------------------
             Standard Nuclear Orientation (Angstroms)
    I     Atom           X                Y                Z
 ----------------------------------------------------------------
    1      C       1.7821059392     0.6073748072     0.4608389876
    2      O       0.3825449730     0.5150071472     0.4225675405
    3      C      -0.0799387884    -0.5977484947    -0.3072698188
    4      C      -1.5861666718    -0.5018782900    -0.3745812033
    5      O      -2.0052885881     0.6649811223    -1.0439843379
    6      H       2.0386943799     1.4889481681     1.0466889090
    7      H       2.2275321530    -0.2767736856     0.9347691248
    8      H       2.2044524010     0.7111525824    -0.5469425884
    9      H       0.3422619775    -0.5851550212    -1.3223030626
   10      H       0.2236277237    -1.5351692584     0.1814978153
   11      H      -1.9833554151    -1.3530219802    -0.9307533802
   12      H      -1.9953615761    -0.5403610632     0.6434828974
   13      H      -1.5511085076     1.4026439662    -0.6278868140
 ----------------------------------------------------------------
 Nuclear Repulsion Energy =   193.6724015160 hartrees
 There are       21 alpha and       21 beta electrons
 Applying Cartesian multipole field
    Component          Value
    ---------          -----
     (2,0,0)        1.00000E-11
     (0,2,0)        2.00000E-11
     (0,0,2)       -3.00000E-10
 Nucleus-field energy     =    -0.0000000151 hartrees
 Requested basis set is def2-TZVP
 There are 87 shells and 203 basis functions
 A cutoff of  1.0D-11 yielded   3573 shell pairs
 There are     19759 function pairs (     25015 Cartesian)
 Smallest overlap matrix eigenvalue = 4.50E-04
 Guess MOs from SCF MO coefficient file
 Reading MOs from coefficient file
 Reading MOs from coefficient file

 -----------------------------------------------------------------------
  General SCF calculation program by
  Eric Jon Sundstrom, Paul Horn, Yuezhi Mao, Dmitri Zuev, Alec White,
  David Stuck, Shaama M.S., Shane Yost, Joonho Lee, David Small,
  Daniel Levine, Susi Lehtola, Hugh Burton, Evgeny Epifanovsky
 -----------------------------------------------------------------------
 Exchange:     0.1957 Hartree-Fock + 1.0000 wB97X-D3 + LR-HF
 Correlation:  1.0000 wB97X-D3
 Using SG-2 standard quadrature grid
 Dispersion:   Grimme D3
 using 16 threads for integral computing
 -------------------------------------------------------
 OpenMP Integral computing Module                
 Release: version 1.0, May 2013, Q-Chem Inc. Pittsburgh 
 -------------------------------------------------------
 using 16 threads for integral computing
 -------------------------------------------------------
 OpenMP Integral computing Module                
 Release: version 1.0, May 2013, Q-Chem Inc. Pittsburgh 
 -------------------------------------------------------
 -------------------------------------------------------
 OpenMP BLAS3 based DFT computing Module                
 Release: version 1.0, May 2013, Q-Chem Inc. Pittsburgh 
 -------------------------------------------------------
 A unrestricted SCF calculation will be
 performed using DIIS
 SCF converges when DIIS error is below 1.0e-08
 ---------------------------------------
  Cycle       Energy         DIIS error
 ---------------------------------------
    1    -269.5895795015      1.73e-05  
    2    -269.5898217704      3.04e-06  
    3    -269.5898220392      1.51e-06  
    4    -269.5898220741      8.22e-07  
    5    -269.5898220855      1.49e-07  
    6    -269.5898220863      4.09e-08  
    7    -269.5898220864      1.85e-08  
    8    -269.5898220864      6.89e-09  Convergence criterion met
 ---------------------------------------
 SCF time:   CPU 175.73s  wall 23.00s 
<S^2> =          0.000000000
 SCF   energy in the final basis set =     -269.5898220864
 Total energy in the final basis set =     -269.5898220864
 No wavefunction analysis requested
 Calculating analytic gradient of the SCF energy
 Gradient of SCF Energy
            1           2           3           4           5           6
    1  -0.0000894   0.0000148   0.0000316  -0.0000276  -0.0000472   0.0000098
    2   0.0000081  -0.0000717   0.0001239   0.0000689  -0.0000517   0.0000075
    3   0.0000140  -0.0000689   0.0001056  -0.0000414  -0.0000002  -0.0000037
            7           8           9          10          11          12
    1   0.0000264   0.0000183   0.0000033   0.0000145   0.0000112   0.0000027
    2  -0.0000171   0.0000024  -0.0000152  -0.0000447  -0.0000366  -0.0000283
    3  -0.0000119  -0.0000285  -0.0000350  -0.0000120   0.0000083   0.0000370
           13
    1   0.0000316
    2   0.0000545
    3   0.0000366
 Max gradient component =       1.239E-04
 RMS gradient           =       4.334E-05
 Gradient time:  CPU 42.58 s  wall 6.05 s
 Geometry Optimization Parameters
   NAtoms,    NIC,     NZ,  NCons,   NDum,   NFix, NCnnct, MaxDiis
       13      76       0       0       0       0       0       0

 Cartesian Hessian Update
 Hessian Updated using BFGS Update


** GEOMETRY OPTIMIZATION IN DELOCALIZED INTERNAL COORDINATES **
   Searching for a Minimum

   Optimization Cycle:   6

                       Coordinates (Angstroms)
     ATOM                X               Y               Z
      1  C         1.7821059392    0.6073748072    0.4608389876
      2  O         0.3825449730    0.5150071472    0.4225675405
      3  C        -0.0799387884   -0.5977484947   -0.3072698188
      4  C        -1.5861666718   -0.5018782900   -0.3745812033
      5  O        -2.0052885881    0.6649811223   -1.0439843379
      6  H         2.0386943799    1.4889481681    1.0466889090
      7  H         2.2275321530   -0.2767736856    0.9347691248
      8  H         2.2044524010    0.7111525824   -0.5469425884
      9  H         0.3422619775   -0.5851550212   -1.3223030626
     10  H         0.2236277237   -1.5351692584    0.1814978153
     11  H        -1.9833554151   -1.3530219802   -0.9307533802
     12  H        -1.9953615761   -0.5403610632    0.6434828974
     13  H        -1.5511085076    1.4026439662   -0.6278868140
   Point Group: c1    Number of degrees of freedom:    33


   Energy is   -269.589822086

 Hessian Updated using BFGS Update

 33 Hessian modes will be used to form the next step
  Hessian Eigenvalues:
     0.003244    0.008140    0.011795    0.013373    0.051760    0.055030
     0.056126    0.060954    0.100945    0.104718    0.110545    0.116082
     0.134439    0.137056    0.156277    0.160061    0.161440    0.167092
     0.218196    0.234197    0.257317    0.318932    0.328435    0.329949
     0.330611    0.330883    0.334308    0.339381    0.345715    0.384589
     0.427580    0.443093    0.538805

 Minimum Search - Taking Simple RFO Step
 Searching for Lamda that Minimizes Along All modes
 Value Taken    Lamda =   0.00000000
 Step Taken.  Stepsize is  0.003041

                             Maximum     Tolerance    Cnvgd?
         Gradient           0.000067      0.000100     YES
         Displacement       0.001759      0.000400      NO
         Energy change     -0.000001      0.000000      NO


 New Cartesian Coordinates Obtained by Inverse Iteration

 Displacement from previous Coordinates is:  0.003412
 Adding empirical dispersion correction 
 ----------------------------------------------------------------
 Doing -D3(0) with
 s6  =   1.00000
 s8  =   1.00000
 rs6 =   1.28100
 rs8 =   1.09400
 -D3 energy without 3body term =     -0.0024931047 hartrees
 ----------------------------------------------------------------
             Standard Nuclear Orientation (Angstroms)
    I     Atom           X                Y                Z
 ----------------------------------------------------------------
    1      C       1.7821240987     0.6074203244     0.4608083414
    2      O       0.3824796922     0.5147445117     0.4230722790
    3      C      -0.0799375945    -0.5980186523    -0.3071575166
    4      C      -1.5861143680    -0.5019663749    -0.3745862488
    5      O      -2.0047511177     0.6648200772    -1.0445042884
    6      H       2.0386857595     1.4887282273     1.0470417394
    7      H       2.2278373364    -0.2768803951     0.9340970462
    8      H       2.2039060397     0.7118543220    -0.5470957855
    9      H       0.3424056219    -0.5850841524    -1.3220630086
   10      H       0.2236201381    -1.5353511901     0.1816312344
   11      H      -1.9837226272    -1.3529805031    -0.9305764699
   12      H      -1.9954307396    -0.5397621124     0.6434043299
   13      H      -1.5511022393     1.4024759178    -0.6279475830
 ----------------------------------------------------------------
 Nuclear Repulsion Energy =   193.6713133496 hartrees
 There are       21 alpha and       21 beta electrons
 Applying Cartesian multipole field
    Component          Value
    ---------          -----
     (2,0,0)        1.00000E-11
     (0,2,0)        2.00000E-11
     (0,0,2)       -3.00000E-10
 Nucleus-field energy     =    -0.0000000151 hartrees
 Requested basis set is def2-TZVP
 There are 87 shells and 203 basis functions
 A cutoff of  1.0D-11 yielded   3573 shell pairs
 There are     19759 function pairs (     25015 Cartesian)
 Smallest overlap matrix eigenvalue = 4.50E-04
 Guess MOs from SCF MO coefficient file
 Reading MOs from coefficient file
 Reading MOs from coefficient file

 -----------------------------------------------------------------------
  General SCF calculation program by
  Eric Jon Sundstrom, Paul Horn, Yuezhi Mao, Dmitri Zuev, Alec White,
  David Stuck, Shaama M.S., Shane Yost, Joonho Lee, David Small,
  Daniel Levine, Susi Lehtola, Hugh Burton, Evgeny Epifanovsky
 -----------------------------------------------------------------------
 Exchange:     0.1957 Hartree-Fock + 1.0000 wB97X-D3 + LR-HF
 Correlation:  1.0000 wB97X-D3
 Using SG-2 standard quadrature grid
 Dispersion:   Grimme D3
 using 16 threads for integral computing
 -------------------------------------------------------
 OpenMP Integral computing Module                
 Release: version 1.0, May 2013, Q-Chem Inc. Pittsburgh 
 -------------------------------------------------------
 using 16 threads for integral computing
 -------------------------------------------------------
 OpenMP Integral computing Module                
 Release: version 1.0, May 2013, Q-Chem Inc. Pittsburgh 
 -------------------------------------------------------
 -------------------------------------------------------
 OpenMP BLAS3 based DFT computing Module                
 Release: version 1.0, May 2013, Q-Chem Inc. Pittsburgh 
 -------------------------------------------------------
 A unrestricted SCF calculation will be
 performed using DIIS
 SCF converges when DIIS error is below 1.0e-08
 ---------------------------------------
  Cycle       Energy         DIIS error
 ---------------------------------------
    1    -269.5898031013      5.99e-06  
    2    -269.5898221492      9.94e-07  
    3    -269.5898221711      8.16e-07  
    4    -269.5898221805      2.02e-07  
    5    -269.5898221814      4.10e-08  
    6    -269.5898221815      1.44e-08  
    7    -269.5898221815      4.87e-09  Convergence criterion met
 ---------------------------------------
 SCF time:   CPU 140.88s  wall 19.00s 
<S^2> =          0.000000000
 SCF   energy in the final basis set =     -269.5898221815
 Total energy in the final basis set =     -269.5898221815
 No wavefunction analysis requested
 Calculating analytic gradient of the SCF energy
 Gradient of SCF Energy
            1           2           3           4           5           6
    1  -0.0000018   0.0000009   0.0000101  -0.0000143  -0.0000111   0.0000030
    2   0.0000072  -0.0000077   0.0000253   0.0000024  -0.0000192   0.0000002
    3   0.0000051  -0.0000120   0.0000091   0.0000081   0.0000062  -0.0000069
            7           8           9          10          11          12
    1   0.0000074  -0.0000015  -0.0000015   0.0000051  -0.0000053   0.0000051
    2  -0.0000045   0.0000028   0.0000002  -0.0000058   0.0000015  -0.0000055
    3  -0.0000164  -0.0000136  -0.0000108  -0.0000102   0.0000044   0.0000134
           13
    1   0.0000039
    2   0.0000030
    3   0.0000239
 Max gradient component =       2.533E-05
 RMS gradient           =       9.708E-06
 Gradient time:  CPU 43.51 s  wall 6.06 s
 Geometry Optimization Parameters
   NAtoms,    NIC,     NZ,  NCons,   NDum,   NFix, NCnnct, MaxDiis
       13      76       0       0       0       0       0       0

 Cartesian Hessian Update
 Hessian Updated using BFGS Update


** GEOMETRY OPTIMIZATION IN DELOCALIZED INTERNAL COORDINATES **
   Searching for a Minimum

   Optimization Cycle:   7

                       Coordinates (Angstroms)
     ATOM                X               Y               Z
      1  C         1.7821240987    0.6074203244    0.4608083414
      2  O         0.3824796922    0.5147445117    0.4230722790
      3  C        -0.0799375945   -0.5980186523   -0.3071575166
      4  C        -1.5861143680   -0.5019663749   -0.3745862488
      5  O        -2.0047511177    0.6648200772   -1.0445042884
      6  H         2.0386857595    1.4887282273    1.0470417394
      7  H         2.2278373364   -0.2768803951    0.9340970462
      8  H         2.2039060397    0.7118543220   -0.5470957855
      9  H         0.3424056219   -0.5850841524   -1.3220630086
     10  H         0.2236201381   -1.5353511901    0.1816312344
     11  H        -1.9837226272   -1.3529805031   -0.9305764699
     12  H        -1.9954307396   -0.5397621124    0.6434043299
     13  H        -1.5511022393    1.4024759178   -0.6279475830
   Point Group: c1    Number of degrees of freedom:    33


   Energy is   -269.589822181

 Hessian Updated using BFGS Update

 33 Hessian modes will be used to form the next step
  Hessian Eigenvalues:
     0.003351    0.008162    0.010353    0.013373    0.051769    0.054010
     0.056123    0.062471    0.100540    0.104678    0.110562    0.117099
     0.133951    0.138692    0.158862    0.159804    0.160990    0.169565
     0.222533    0.233762    0.255577    0.309686    0.327559    0.330031
     0.330651    0.330848    0.332329    0.339335    0.344253    0.381123
     0.428083    0.450611    0.530744

 Minimum Search - Taking Simple RFO Step
 Searching for Lamda that Minimizes Along All modes
 Value Taken    Lamda =   0.00000000
 Step Taken.  Stepsize is  0.000843

                             Maximum     Tolerance    Cnvgd?
         Gradient           0.000015      0.000100     YES
         Displacement       0.000364      0.000400     YES
         Energy change     -0.000000      0.000000     YES


                       Distance Matrix (Angstroms)
             C (  1)   O (  2)   C (  3)   C (  4)   O (  5)   H (  6)
   O (  2)  1.403217
   C (  3)  2.347366  1.409009
   C (  4)  3.643303  2.354851  1.510742
   O (  5)  4.075498  2.806274  2.417302  1.409056
   H (  6)  1.089127  2.020149  3.267558  4.372993  4.626313
   H (  7)  1.097566  2.071994  2.640013  4.038508  4.766180  1.779300
   H (  8)  1.097578  2.073083  2.643725  3.983387  4.238210  1.781040
   H (  9)  2.583309  2.063184  1.099352  2.150305  2.673657  3.576412
   H ( 10)  2.664272  2.070368  1.099843  2.156943  3.363005  3.631591
   H ( 11)  4.467743  3.304493  2.140798  1.091532  2.021124  5.307170
   H ( 12)  3.952125  2.610553  2.139176  1.097849  2.073678  4.533408
   H ( 13)  3.595539  2.373067  2.503839  1.921541  0.960965  3.962273
             H (  7)   H (  8)   H (  9)   H ( 10)   H ( 11)   H ( 12)
   H (  8)  1.781039
   H (  9)  2.956366  2.397459
   H ( 10)  2.483312  3.082614  1.782755
   H ( 11)  4.729930  4.684745  2.480685  2.478432
   H ( 12)  4.241415  4.540734  3.054602  2.475605  1.771688
   H ( 13)  4.420476  3.818846  2.831530  3.526455  2.805581  2.363483

 
 Final energy is   -269.589822181474     


 ******************************
 **  OPTIMIZATION CONVERGED  **
 ******************************

                       Coordinates (Angstroms)
     ATOM                X               Y               Z
      1  C         1.7821240987    0.6074203244    0.4608083414
      2  O         0.3824796922    0.5147445117    0.4230722790
      3  C        -0.0799375945   -0.5980186523   -0.3071575166
      4  C        -1.5861143680   -0.5019663749   -0.3745862488
      5  O        -2.0047511177    0.6648200772   -1.0445042884
      6  H         2.0386857595    1.4887282273    1.0470417394
      7  H         2.2278373364   -0.2768803951    0.9340970462
      8  H         2.2039060397    0.7118543220   -0.5470957855
      9  H         0.3424056219   -0.5850841524   -1.3220630086
     10  H         0.2236201381   -1.5353511901    0.1816312344
     11  H        -1.9837226272   -1.3529805031   -0.9305764699
     12  H        -1.9954307396   -0.5397621124    0.6434043299
     13  H        -1.5511022393    1.4024759178   -0.6279475830

Z-matrix Print:
$molecule
0 1
O 
C  1 1.403217
H  2 1.089127 1 107.630957
H  2 1.097566 1 111.311797 3 119.282872 0
H  2 1.097578 1 111.401107 3 -119.526082 0
C  1 1.409009 2 113.169154 3 -179.722547 0
H  6 1.099352 1 110.064343 2 -55.095775 0
H  6 1.099843 1 110.619184 2 64.567702 0
C  6 1.510742 1 107.464443 2 -174.802225 0
H  9 1.091532 6 109.653440 1 -179.708077 0
H  9 1.097849 6 109.155497 1 -61.534240 0
O  9 1.409056 6 111.720225 1 61.626936 0
H  12 0.960965 9 106.815457 6 -51.938127 0
$end

 No wavefunction analysis requested
Archival summary:
1\1\nid00052\OPT\ProcedureUnspecified\BasisUnspecified\238\cgrambow\MonFeb1110:43:062019MonFeb1110:43:062019\0\\#,OPT,ProcedureUnspecified,BasisUnspecified,\\0,1\O\C,1,1.40322\H,2,1.08913,1,107.631\H,2,1.09757,1,111.312,3,119.283,0\H,2,1.09758,1,111.401,3,-119.526,0\C,1,1.40901,2,113.169,3,-179.723,0\H,6,1.09935,1,110.064,2,-55.0958,0\H,6,1.09984,1,110.619,2,64.5677,0\C,6,1.51074,1,107.464,2,-174.802,0\H,9,1.09153,6,109.653,1,-179.708,0\H,9,1.09785,6,109.155,1,-61.5342,0\O,9,1.40906,6,111.72,1,61.6269,0\H,12,0.960965,9,106.815,6,-51.9381,0\\\@

 Total job time:  225.46s(wall), 1660.22s(cpu) 
 Mon Feb 11 10:43:06 2019

        *************************************************************
        *                                                           *
        *  Thank you very much for using Q-Chem.  Have a nice day.  *
        *                                                           *
        *************************************************************



Running Job 2 of 2 molopt4.in
qchem molopt4.in_43383.1 /tmp/qchem43383/ 1
/global/common/cori/software/qchem/5.1/exe/qcprog.exe molopt4.in_43383.1 /tmp/qchem43383/
Check license passed

                  Welcome to Q-Chem
     A Quantum Leap Into The Future Of Chemistry


 Q-Chem 5.1, Q-Chem, Inc., Pleasanton, CA (2018)

 Yihan Shao,  Zhengting Gan,  E. Epifanovsky,  A. T. B. Gilbert,  M. Wormit,  
 J. Kussmann,  A. W. Lange,  A. Behn,  Jia Deng,  Xintian Feng,  D. Ghosh,  
 M. Goldey,  P. R. Horn,  L. D. Jacobson,  I. Kaliman,  T. Kus,  A. Landau,  
 Jie Liu,  E. I. Proynov,  R. M. Richard,  R. P. Steele,  E. J. Sundstrom,  
 H. L. Woodcock III,  P. M. Zimmerman,  D. Zuev,  B. Albrecht,  E. Alguire,  
 S. A. Baeppler,  D. Barton,  Z. Benda,  Y. A. Bernard,  E. J. Berquist,  
 K. B. Bravaya,  H. Burton,  D. Casanova,  Chun-Min Chang,  Yunqing Chen,  
 A. Chien,  K. D. Closser,  M. P. Coons,  S. Coriani,  S. Dasgupta,  
 A. L. Dempwolff,  M. Diedenhofen,  Hainam Do,  R. G. Edgar,  Po-Tung Fang,  
 S. Faraji,  S. Fatehi,  Qingguo Feng,  K. D. Fenk,  J. Fosso-Tande,  
 Qinghui Ge,  A. Ghysels,  G. Gidofalvi,  J. Gomes,  J. Gonthier,  A. Gunina,  
 D. Hait,  M. W. D. Hanson-Heine,  P. H. P. Harbach,  A. W. Hauser,  
 J. E. Herr,  E. G. Hohenstein,  Z. C. Holden,  Kerwin Hui,  B. C. Huynh,  
 T.-C. Jagau,  Hyunjun Ji,  B. Kaduk,  K. Khistyaev,  Jaehoon Kim,  
 P. Klunzinger,  K. Koh,  D. Kosenkov,  L. Koulias,  T. Kowalczyk,  
 C. M. Krauter,  A. Kunitsa,  Ka Un Lao,  A. Laurent,  K. V. Lawler,  
 Joonho Lee,  D. Lefrancois,  S. Lehtola,  D. S. Levine,  Yi-Pei Li,  
 You-Sheng Lin,  Fenglai Liu,  E. Livshits,  A. Luenser,  P. Manohar,  
 E. Mansoor,  S. F. Manzer,  Shan-Ping Mao,  Yuezhi Mao,  N. Mardirossian,  
 A. V. Marenich,  T. Markovich,  L. A. Martinez-Martinez,  S. A. Maurer,  
 N. J. Mayhall,  S. C. McKenzie,  J.-M. Mewes,  A. F. Morrison,  
 J. W. Mullinax,  K. Nanda,  T. S. Nguyen-Beck,  R. Olivares-Amaya,  
 J. A. Parkhill,  T. M. Perrine,  F. Plasser,  P. Pokhilko,  S. Prager,  
 A. Prociuk,  E. Ramos,  D. R. Rehn,  F. Rob,  M. Schneider,  N. Sergueev,  
 S. M. Sharada,  S. Sharma,  D. W. Small,  T. Stauch,  T. Stein,  
 Yu-Chuan Su,  A. J. W. Thom,  A. Tkatchenko,  T. Tsuchimochi,  N. M. Tubman,  
 L. Vogt,  M. L. Vidal,  O. Vydrov,  M. A. Watson,  J. Wenzel,  
 M. de Wergifosse,  T. A. Wesolowski,  A. White,  J. Witte,  A. Yamada,  
 Jun Yang,  K. Yao,  S. Yeganeh,  S. R. Yost,  Zhi-Qiang You,  A. Zech,  
 Igor Ying Zhang,  Xing Zhang,  Yan Zhao,  Ying Zhu,  B. R. Brooks,  
 G. K. L. Chan,  C. J. Cramer,  M. S. Gordon,  W. J. Hehre,  A. Klamt,  
 M. W. Schmidt,  C. D. Sherrill,  D. G. Truhlar,  A. Aspuru-Guzik,  R. Baer,  
 A. T. Bell,  N. A. Besley,  Jeng-Da Chai,  R. A. DiStasio Jr.,  A. Dreuw,  
 B. D. Dunietz,  T. R. Furlani,  Chao-Ping Hsu,  Yousung Jung,  Jing Kong,  
 D. S. Lambrecht,  WanZhen Liang,  C. Ochsenfeld,  V. A. Rassolov,  
 L. V. Slipchenko,  J. E. Subotnik,  T. Van Voorhis,  J. M. Herbert,  
 A. I. Krylov,  P. M. W. Gill,  M. Head-Gordon

 Contributors to earlier versions of Q-Chem not listed above: 
 R. D. Adamson,  B. Austin,  J. Baker,  G. J. O. Beran,  K. Brandhorst,  
 S. T. Brown,  E. F. C. Byrd,  A. K. Chakraborty,  C.-L. Cheng,  
 Siu Hung Chien,  D. M. Chipman,  D. L. Crittenden,  H. Dachsel,  
 R. J. Doerksen,  A. D. Dutoi,  L. Fusti-Molnar,  W. A. Goddard III,  
 A. Golubeva-Zadorozhnaya,  S. R. Gwaltney,  G. Hawkins,  A. Heyden,  
 S. Hirata,  G. Kedziora,  F. J. Keil,  C. Kelley,  Jihan Kim,  R. A. King,  
 R. Z. Khaliullin,  P. P. Korambath,  W. Kurlancheek,  A. M. Lee,  M. S. Lee,  
 S. V. Levchenko,  Ching Yeh Lin,  D. Liotard,  R. C. Lochan,  I. Lotan,  
 P. E. Maslen,  N. Nair,  D. P. O'Neill,  D. Neuhauser,  E. Neuscamman,  
 C. M. Oana,  R. Olson,  B. Peters,  R. Peverati,  P. A. Pieniazek,  
 Y. M. Rhee,  J. Ritchie,  M. A. Rohrdanz,  E. Rosta,  N. J. Russ,  
 H. F. Schaefer III,  N. E. Schultz,  N. Shenvi,  A. C. Simmonett,  A. Sodt,  
 D. Stuck,  K. S. Thanthiriwatte,  V. Vanovschi,  Tao Wang,  A. Warshel,  
 C. F. Williams,  Q. Wu,  X. Xu,  W. Zhang

 Please cite Q-Chem as follows:
 Y. Shao et al., Mol. Phys. 113, 184-215 (2015)
 DOI: 10.1080/00268976.2014.952696

 Q-Chem 5.1.0 for Intel X86 EM64T Linux

 Parts of Q-Chem use Armadillo 8.300.2 (Tropical Shenanigans).
 http://arma.sourceforge.net/

 Q-Chem begins on Mon Feb 11 10:43:09 2019  

Host: cori10
0

     Scratch files written to /tmp/qchem43383//
 Jun2518 |scratch|qcdevops|jenkins|workspace|build_RNUM -1
Processing $rem in /global/common/cori/software/qchem/5.1/config/preferences.
 MEM_TOTAL  96000 
The previous job contains 0 fragments, simply inherited here

Checking the input file for inconsistencies... 	...done.

--------------------------------------------------------------
User input:
--------------------------------------------------------------

$molecule
read
$end

$rem
JOBTYPE                   FREQ
METHOD                    wB97X-D3
BASIS                     def2-TZVP
UNRESTRICTED              TRUE
SCF_GUESS                 READ
SCF_ALGORITHM             DIIS
MAX_SCF_CYCLES            100
SCF_CONVERGENCE           8
SYM_IGNORE                TRUE
SYMMETRY                  FALSE
WAVEFUNCTION_ANALYSIS     FALSE
$end
--------------------------------------------------------------
 Adding empirical dispersion correction 
 ----------------------------------------------------------------
 Doing -D3(0) with
 s6  =   1.00000
 s8  =   1.00000
 rs6 =   1.28100
 rs8 =   1.09400
 -D3 energy without 3body term =     -0.0024931047 hartrees
 ----------------------------------------------------------------
             Standard Nuclear Orientation (Angstroms)
    I     Atom           X                Y                Z
 ----------------------------------------------------------------
    1      C       1.7821240987     0.6074203244     0.4608083414
    2      O       0.3824796922     0.5147445117     0.4230722790
    3      C      -0.0799375945    -0.5980186523    -0.3071575166
    4      C      -1.5861143680    -0.5019663749    -0.3745862488
    5      O      -2.0047511177     0.6648200772    -1.0445042884
    6      H       2.0386857595     1.4887282273     1.0470417394
    7      H       2.2278373364    -0.2768803951     0.9340970462
    8      H       2.2039060397     0.7118543220    -0.5470957855
    9      H       0.3424056219    -0.5850841524    -1.3220630086
   10      H       0.2236201381    -1.5353511901     0.1816312344
   11      H      -1.9837226272    -1.3529805031    -0.9305764699
   12      H      -1.9954307396    -0.5397621124     0.6434043299
   13      H      -1.5511022393     1.4024759178    -0.6279475830
 ----------------------------------------------------------------
 Nuclear Repulsion Energy =   193.6713133496 hartrees
 There are       21 alpha and       21 beta electrons
 Requested basis set is def2-TZVP
 There are 87 shells and 203 basis functions

 Total QAlloc Memory Limit  96000 MB
 Mega-Array Size       188 MB
 MEM_STATIC part       192 MB

                       Distance Matrix (Angstroms)
             C (  1)   O (  2)   C (  3)   C (  4)   O (  5)   H (  6)
   O (  2)  1.403217
   C (  3)  2.347366  1.409009
   C (  4)  3.643303  2.354851  1.510742
   O (  5)  4.075498  2.806274  2.417302  1.409056
   H (  6)  1.089127  2.020149  3.267558  4.372993  4.626313
   H (  7)  1.097566  2.071994  2.640013  4.038508  4.766180  1.779300
   H (  8)  1.097578  2.073083  2.643725  3.983387  4.238210  1.781040
   H (  9)  2.583309  2.063184  1.099352  2.150305  2.673657  3.576412
   H ( 10)  2.664272  2.070368  1.099843  2.156943  3.363005  3.631591
   H ( 11)  4.467743  3.304493  2.140798  1.091532  2.021124  5.307170
   H ( 12)  3.952125  2.610553  2.139176  1.097849  2.073678  4.533408
   H ( 13)  3.595539  2.373067  2.503839  1.921541  0.960965  3.962273
             H (  7)   H (  8)   H (  9)   H ( 10)   H ( 11)   H ( 12)
   H (  8)  1.781039
   H (  9)  2.956366  2.397459
   H ( 10)  2.483312  3.082614  1.782755
   H ( 11)  4.729930  4.684745  2.480685  2.478432
   H ( 12)  4.241415  4.540734  3.054602  2.475605  1.771688
   H ( 13)  4.420476  3.818846  2.831530  3.526455  2.805581  2.363483

 
 A cutoff of  1.0D-11 yielded   3573 shell pairs
 There are     19759 function pairs (     25015 Cartesian)
 
 -------------------------------------------------------
 OpenMP Integral Computing Module                       
 Release: version 1.0, May 2013, Q-Chem Inc. Pittsburgh 
 -------------------------------------------------------
 Integral Job Info:
 Integral job number is                      11
 Integral operator is                         1
 short-range coefficients              19572800
 long-range coefficients              100000000
 Omega coefficients                         250
 if combine SR and LR in K                    1
 Integral screening is                        0
 Integral computing path is                   2
 max size of driver memory is            800000
 size of driver memory is                776718
 size of scratch memory is              4473992
 max col of scratch BK array              10000
 max len of scratch array in speh3          662
 max len of scratch index in speh4           32
 max int batch size is                      520
 min int batch size is                       52
 fixed nKL is                                52
 max L of basis functions is                  3
 order of int derivative is                   0
 number of shells is                         87
 number of basis is                         228
 number of cartesian basis is               228
 number of contracted shell pairs          3573
 number of primitive shell pairs           8139
 maxK2 (contraction) of shell pair           36
 max number of K2 of shell pair               1
 max number of CS2 of shell pair            568
 max number of PS2 of shell pair           1026
 mem total for path MDJ                  563348
 -------------------------------------------------------
 Smallest overlap matrix eigenvalue = 4.50E-04

 -----------------------------------------------------------------------
  General SCF calculation program by
  Eric Jon Sundstrom, Paul Horn, Yuezhi Mao, Dmitri Zuev, Alec White,
  David Stuck, Shaama M.S., Shane Yost, Joonho Lee, David Small,
  Daniel Levine, Susi Lehtola, Hugh Burton, Evgeny Epifanovsky
 -----------------------------------------------------------------------
 Exchange:     0.1957 Hartree-Fock + 1.0000 wB97X-D3 + LR-HF
 Correlation:  1.0000 wB97X-D3
 Using SG-2 standard quadrature grid
 Dispersion:   Grimme D3
 using 16 threads for integral computing
 -------------------------------------------------------
 OpenMP Integral computing Module                
 Release: version 1.0, May 2013, Q-Chem Inc. Pittsburgh 
 -------------------------------------------------------
 using 16 threads for integral computing
 -------------------------------------------------------
 OpenMP Integral computing Module                
 Release: version 1.0, May 2013, Q-Chem Inc. Pittsburgh 
 -------------------------------------------------------
 -------------------------------------------------------
 OpenMP BLAS3 based DFT computing Module                
 Release: version 1.0, May 2013, Q-Chem Inc. Pittsburgh 
 -------------------------------------------------------
 A unrestricted SCF calculation will be
 performed using DIIS
 SCF converges when DIIS error is below 1.0e-08
 ---------------------------------------
  Cycle       Energy         DIIS error
 ---------------------------------------
    1    -269.5898221884      1.98e-09  
    2    -269.5898221884      1.99e-09  Convergence criterion met
 ---------------------------------------
 SCF time:   CPU 55.62s  wall 8.00s 
<S^2> =          0.000000000
 SCF   energy in the final basis set =     -269.5898221884
 Total energy in the final basis set =     -269.5898221884
 No wavefunction analysis requested
 Calculating MO derivatives via CPSCF
 D1JvT checksum  = 1258452 37970.1956870778
 D1KAT checksum  = 2626572 3610.7373112126
 D1JvT checksum  = 1258452 24597.5025025978
 D1KAT checksum  = 2626572 1586.7763358237
   1         3          39      0.152654    0.017102
   2         3          39      0.030607    0.004560
   3         3          39      0.004095    0.000570
   4         3          39      0.000512    0.000079
   5        27          15      0.000040    0.000008
   6        42           0      0.000000    0.000000    Roots Converged
 Time for AOints: 110.7 s (CPU) 8.2 s (wall)
 ------------------------------------------------------------------------------
                     AOints        : Timing summary (seconds)
 ------------------------------------------------------------------------------
     job step          cpu (% of tot)      sys (% of tot)     wall (% of tot)
 ------------------------------------------------------------------------------
  cpscf_lag         0.1725E+04 (55.6)   0.1314E-01 (73.2)   0.6043E+03 (47.4)
  iterzp            0.1267E+04 (40.8)   0.4464E-02 (24.9)   0.6610E+03 (51.9)
  make_fx           0.0000E+00 ( 0.0)   0.0000E+00 ( 0.0)   0.0000E+00 ( 0.0)
  AOints            0.1107E+03 ( 3.6)   0.3490E-03 ( 1.9)   0.8244E+01 ( 0.6)
 ------------------------------------------------------------------------------
   Grand Totals     0.3102E+04          0.1796E-01          0.1274E+04
 ------------------------------------------------------------------------------
 Calculating analytic Hessian of the SCF energy
 Polarizability Matrix (a.u.)
            1           2           3
    1 -50.5604069  -2.3895876  -2.8691015
    2  -2.3895876 -45.8878029  -0.3035760
    3  -2.8691015  -0.3035760 -42.7024079
 Running MAKENN_D3_FD2ND
 
 Direct stationary perturbation theory relativistic correction:
 
 rels  =       0.086985697500
 relv  =      -0.380265085259
 rel2e =       0.000000000000
 E_rel =      -0.293279387760
 
 Hessian of the SCF Energy
            1           2           3           4           5           6
    1   0.4915910   0.0071951   0.0055233  -0.2577981  -0.0230718  -0.0120148
    2   0.0071951   0.6062921   0.0302447   0.0139960  -0.0838783  -0.0134991
    3   0.0055233   0.0302447   0.5819929   0.0120895  -0.0120629  -0.0714885
    4  -0.2577981   0.0139960   0.0120895   0.4709179   0.0752226   0.0446877
    5  -0.0230718  -0.0838783  -0.0120629   0.0752226   0.3086332   0.1348756
    6  -0.0120148  -0.0134991  -0.0714885   0.0446877   0.1348756   0.1884403
    7  -0.0279249  -0.0394498  -0.0255412  -0.1010267  -0.0122541  -0.0047881
    8  -0.0110148  -0.0087639  -0.0033494  -0.0463880  -0.1834733  -0.0741160
    9  -0.0075384  -0.0026264  -0.0066424  -0.0295756  -0.0765625  -0.1162772
   10  -0.0012223  -0.0011323  -0.0007367  -0.0223132  -0.0065258  -0.0070935
   11  -0.0002782  -0.0061846  -0.0032460  -0.0417682  -0.0085591  -0.0046675
   12  -0.0001130  -0.0025595  -0.0021685  -0.0295415  -0.0043714  -0.0037908
   13   0.0019637   0.0012368  -0.0000576   0.0002657   0.0014202  -0.0011203
   14  -0.0009124   0.0012141   0.0000897  -0.0014097   0.0042184  -0.0013017
   15   0.0008278   0.0007221  -0.0002686  -0.0005441   0.0004540   0.0012963
   16  -0.0574614  -0.0365584  -0.0248953  -0.0194596  -0.0350140  -0.0230110
   17  -0.0475154  -0.2340667  -0.1219679  -0.0032794   0.0004505   0.0000025
   18  -0.0321672  -0.1221246  -0.1319813  -0.0016209   0.0005197   0.0007373
[...]
 H         -0.237 -0.161  0.436    0.156 -0.209 -0.432   -0.079 -0.254 -0.403
 H          0.353 -0.381  0.284   -0.093  0.350 -0.058    0.045  0.525  0.112
 H         -0.052  0.099 -0.142   -0.058  0.251 -0.030   -0.018 -0.148  0.002
 H          0.117  0.126 -0.113    0.021  0.012 -0.180    0.001  0.024  0.116
 H          0.025 -0.062  0.144   -0.005 -0.044  0.228   -0.056 -0.007  0.069
 H          0.142  0.035  0.094    0.055  0.234  0.081    0.021  0.037  0.050
 H         -0.217  0.004 -0.067   -0.309  0.063 -0.194    0.175 -0.035 -0.050
 TransDip   0.003 -0.004  0.031   -0.056  0.066 -0.024    0.040 -0.039  0.035

 Mode:                 4                      5                      6
 Frequency:       278.67                 371.46                 417.76
 Force Cnst:      0.0873                 0.1818                 0.1304
 Red. Mass:       1.9078                 2.2356                 1.2679
 IR Active:          YES                    YES                    YES
 IR Intens:        3.135                 14.316                123.359
 Raman Active:       YES                    YES                    YES
               X      Y      Z        X      Y      Z        X      Y      Z
 C          0.040 -0.088 -0.066   -0.097 -0.112 -0.067    0.046  0.022  0.014
 O          0.013  0.124  0.030   -0.110  0.095  0.071    0.036 -0.010  0.024
 C          0.001  0.055  0.142    0.004  0.123 -0.050   -0.008  0.000  0.015
 C          0.003 -0.061 -0.124    0.035 -0.053  0.056   -0.021 -0.009 -0.046
 O         -0.047 -0.002  0.017    0.124 -0.047  0.023   -0.100  0.010  0.032
 H          0.243 -0.198  0.009    0.152 -0.136 -0.143    0.015  0.030  0.015
 H         -0.069 -0.220 -0.208   -0.218 -0.186 -0.091    0.071  0.037  0.015
 H         -0.036 -0.055 -0.094   -0.203 -0.254 -0.126    0.040  0.037  0.014
 H          0.150 -0.104  0.202   -0.106  0.392 -0.094    0.051 -0.037  0.038
 H         -0.080  0.114  0.308    0.270  0.114 -0.242   -0.077 -0.008  0.039
 H          0.263 -0.017 -0.382    0.031 -0.067  0.082    0.053 -0.010 -0.104
 H         -0.236 -0.333 -0.230    0.069 -0.015  0.071   -0.048 -0.093 -0.059
 H         -0.218 -0.009  0.215    0.475 -0.121 -0.224    0.714 -0.107 -0.638
 TransDip  -0.034 -0.040  0.021    0.084 -0.050 -0.071    0.298 -0.060 -0.185

 Mode:                 7                      8                      9
 Frequency:       554.29                 856.26                 920.21
 Force Cnst:      0.4446                 0.7826                 1.0475
 Red. Mass:       2.4562                 1.8116                 2.0995
 IR Active:          YES                    YES                    YES
 IR Intens:        7.547                 19.422                 11.759
 Raman Active:       YES                    YES                    YES
               X      Y      Z        X      Y      Z        X      Y      Z
 C         -0.130 -0.054 -0.039   -0.095 -0.023 -0.016   -0.018  0.005 -0.003
 O         -0.090 -0.017  0.010    0.025 -0.094 -0.079   -0.005  0.026 -0.010
 C          0.155 -0.066  0.007   -0.013  0.066  0.090    0.173 -0.136  0.085
 C          0.200  0.105 -0.032    0.109  0.085  0.099   -0.072 -0.067  0.056
 O         -0.107  0.037  0.020   -0.001 -0.012 -0.006   -0.069  0.113 -0.065
 H         -0.019 -0.071 -0.065   -0.260  0.001  0.018    0.082 -0.031  0.007
 H         -0.157 -0.091 -0.077   -0.035  0.026  0.027   -0.093 -0.047 -0.025
 H         -0.196 -0.102 -0.072   -0.012  0.037  0.021   -0.016 -0.046 -0.009
 H          0.489 -0.259  0.144   -0.307  0.115 -0.044   -0.137  0.229 -0.048
 H         -0.083 -0.019  0.258    0.045 -0.027 -0.113    0.804 -0.075 -0.196
 H          0.015  0.058  0.182    0.603  0.102 -0.289   -0.162  0.063 -0.075
 H          0.472  0.222  0.084   -0.318 -0.270 -0.093   -0.275 -0.005 -0.036
 H         -0.075  0.131 -0.184   -0.097  0.172 -0.237   -0.021  0.084 -0.058
 TransDip   0.075  0.036 -0.028   -0.023  0.138  0.018    0.042 -0.085  0.056

 Mode:                10                     11                     12
 Frequency:      1049.44                1108.37                1140.89
 Force Cnst:      1.5798                 1.6497                 1.7772
 Red. Mass:       2.4346                 2.2792                 2.3174
 IR Active:          YES                    YES                    YES
 IR Intens:       16.989                 99.345                 29.141
 Raman Active:       YES                    YES                    YES
               X      Y      Z        X      Y      Z        X      Y      Z
 C         -0.132 -0.057 -0.030    0.084  0.000 -0.019    0.017 -0.001  0.050
 O          0.118 -0.096 -0.048   -0.069  0.001 -0.014   -0.025 -0.009  0.022
 C          0.076  0.201  0.071   -0.122 -0.016  0.094    0.025  0.047 -0.150
 C         -0.087 -0.096 -0.038    0.173 -0.131 -0.032   -0.004 -0.135  0.194
 O         -0.013  0.047 -0.020   -0.058  0.124 -0.052   -0.019  0.121 -0.097
 H         -0.478  0.017  0.005   -0.055 -0.003  0.044    0.171  0.049 -0.092
 H          0.042  0.066  0.059    0.029  0.024  0.059    0.145 -0.009 -0.086
 H         -0.023  0.082  0.022    0.175  0.039  0.032   -0.251 -0.014 -0.060
 H          0.280  0.066  0.145   -0.406  0.166 -0.020    0.145 -0.483 -0.101
 H          0.104  0.273  0.218   -0.063 -0.131 -0.170   -0.200  0.210  0.318
 H         -0.148 -0.263  0.272    0.290 -0.409  0.326    0.286 -0.098 -0.071
 H          0.047  0.224  0.032    0.291  0.230  0.016   -0.057 -0.426  0.148
 H          0.199 -0.244  0.281    0.154 -0.162  0.253    0.019  0.044  0.014
 TransDip  -0.049 -0.004  0.122    0.226 -0.188  0.124    0.075 -0.136  0.076

 Mode:                13                     14                     15
 Frequency:      1189.51                1193.52                1218.47
 Force Cnst:      1.5559                 1.1622                 1.8227
 Red. Mass:       1.8663                 1.3848                 2.0837
 IR Active:          YES                    YES                    YES
 IR Intens:       51.518                  9.417                 99.837
 Raman Active:       YES                    YES                    YES
               X      Y      Z        X      Y      Z        X      Y      Z
 C         -0.154  0.111 -0.008    0.050  0.041 -0.127   -0.115 -0.074 -0.036
 O          0.157  0.012  0.041   -0.055 -0.040  0.048    0.138  0.111  0.056
 C         -0.021 -0.059 -0.040    0.018  0.033 -0.015   -0.104 -0.075 -0.014
 C          0.004  0.003 -0.002   -0.017 -0.020  0.044    0.060 -0.091  0.008
 O         -0.014  0.012 -0.012    0.007  0.011 -0.014    0.010  0.036 -0.016
 H          0.412 -0.114  0.091   -0.170 -0.136  0.232   -0.411  0.003 -0.010
 H         -0.616 -0.165 -0.061   -0.444 -0.023  0.215    0.155  0.129  0.112
 H          0.036 -0.249  0.021    0.700 -0.052  0.141    0.065  0.173  0.053
 H         -0.121 -0.092 -0.075    0.190  0.004  0.064   -0.078  0.078  0.016
 H         -0.205 -0.148 -0.097   -0.035  0.046  0.063   -0.025 -0.038 -0.024
 H          0.210 -0.164  0.099   -0.059  0.077 -0.073   -0.338  0.184 -0.120
 H         -0.068  0.070 -0.033    0.037 -0.170  0.063    0.380 -0.307  0.131
 H          0.116 -0.166  0.179   -0.052  0.078 -0.074   -0.198  0.309 -0.296
 TransDip  -0.189 -0.127 -0.031    0.074  0.060 -0.025   -0.280 -0.117 -0.102

 Mode:                16                     17                     18
 Frequency:      1266.97                1279.44                1384.04
 Force Cnst:      1.2911                 1.2563                 1.3819
 Red. Mass:       1.3651                 1.3026                 1.2245
 IR Active:          YES                    YES                    YES
 IR Intens:       17.470                 27.327                  2.263
 Raman Active:       YES                    YES                    YES
               X      Y      Z        X      Y      Z        X      Y      Z
 C          0.014  0.056  0.047   -0.007 -0.059 -0.024    0.001  0.002  0.003
 O         -0.006 -0.048 -0.079   -0.002  0.074  0.003    0.002 -0.011 -0.003
 C         -0.005  0.050  0.086    0.039 -0.070 -0.025   -0.033 -0.030  0.022
 C         -0.018 -0.057  0.020   -0.042  0.045  0.059   -0.048  0.104 -0.001
 O          0.014  0.019 -0.018   -0.010  0.002 -0.023   -0.018 -0.018 -0.047
 H          0.300  0.012 -0.017   -0.248  0.010 -0.020    0.013 -0.000  0.002
 H         -0.110 -0.100 -0.139    0.154  0.083  0.078    0.017  0.000 -0.009
 H         -0.167 -0.134 -0.052    0.061  0.145  0.022   -0.004 -0.013 -0.000
 H          0.301  0.381  0.218    0.433  0.265  0.151   -0.063  0.054  0.009
 H         -0.305 -0.246 -0.259   -0.328 -0.339 -0.300    0.296  0.132  0.114
 H         -0.231  0.097 -0.054    0.300 -0.120  0.056    0.161  0.121 -0.159
 H          0.284 -0.270  0.146   -0.192 -0.053 -0.003    0.566 -0.398  0.242
 H         -0.089  0.143 -0.136    0.140 -0.213  0.216    0.211 -0.337  0.308
 TransDip   0.031  0.085  0.099    0.003 -0.159  0.052    0.032 -0.024  0.028

 Mode:                19                     20                     21
 Frequency:      1407.61                1449.27                1484.33
 Force Cnst:      1.4608                 1.8129                 1.5036
 Red. Mass:       1.2514                 1.4650                 1.1583
 IR Active:          YES                    YES                    YES
 IR Intens:       32.462                 32.027                  2.514
 Raman Active:       YES                    YES                    YES
               X      Y      Z        X      Y      Z        X      Y      Z
 C         -0.019  0.015  0.010   -0.017  0.012  0.012   -0.091 -0.032 -0.004
 O          0.009 -0.018 -0.012    0.011 -0.019 -0.013   -0.021 -0.014 -0.007
 C         -0.120 -0.041 -0.033   -0.107 -0.007 -0.029    0.056 -0.004  0.004
 C         -0.033  0.007 -0.018    0.141 -0.014  0.065   -0.015 -0.002 -0.007
 O          0.023  0.014  0.028   -0.039 -0.013 -0.029    0.001  0.001  0.001
 H          0.180 -0.021 -0.016    0.138 -0.001 -0.035    0.535 -0.048 -0.231
 H          0.103  0.030 -0.051    0.072  0.010 -0.062    0.316  0.184  0.024
 H          0.106 -0.031  0.045    0.088 -0.022  0.043    0.432  0.269  0.230
 H          0.464  0.137  0.211    0.319  0.181  0.162   -0.187  0.245 -0.079
 H          0.446  0.191  0.056    0.167  0.157  0.094   -0.204  0.042  0.227
 H          0.371 -0.319  0.180   -0.363  0.415 -0.203   -0.008 -0.019  0.011
 H          0.009  0.049 -0.007   -0.355  0.152 -0.139    0.027 -0.016  0.012
 H         -0.156  0.244 -0.205    0.182 -0.292  0.256   -0.000  0.008 -0.010
 TransDip  -0.157  0.045 -0.081    0.054 -0.156  0.075   -0.041  0.015 -0.026

 Mode:                22                     23                     24
 Frequency:      1493.81                1503.63                1506.50
 Force Cnst:      1.3770                 1.4466                 1.4521
 Red. Mass:       1.0473                 1.0860                 1.0859
 IR Active:          YES                    YES                    YES
 IR Intens:        9.328                  8.984                  5.972
 Raman Active:       YES                    YES                    YES
               X      Y      Z        X      Y      Z        X      Y      Z
 C         -0.021  0.028 -0.046   -0.009 -0.018 -0.017    0.006  0.029  0.021
 O         -0.004  0.004 -0.011    0.002  0.001 -0.001    0.003  0.007  0.003
 C          0.010 -0.002 -0.002   -0.013  0.028  0.015    0.023 -0.042 -0.025
 C          0.002  0.001  0.000   -0.039 -0.056  0.024   -0.031 -0.037  0.017
 O         -0.001  0.000 -0.001   -0.000 -0.006  0.005    0.001 -0.000  0.006
 H          0.114 -0.413  0.562    0.184 -0.074 -0.001   -0.278  0.082  0.043
 H          0.353  0.344  0.256   -0.036  0.112  0.239    0.100 -0.143 -0.364
 H         -0.175 -0.358 -0.128   -0.059  0.220 -0.004    0.106 -0.375  0.007
 H         -0.030  0.067 -0.018    0.093 -0.246  0.048   -0.083  0.380 -0.052
 H         -0.049  0.016  0.055    0.068 -0.092 -0.238   -0.177  0.088  0.326
 H         -0.020 -0.003  0.021    0.230  0.178 -0.500    0.204  0.068 -0.305
 H         -0.019 -0.022 -0.008    0.238  0.528  0.138    0.120  0.362  0.078
 H          0.005 -0.006  0.005   -0.009  0.003 -0.005   -0.025  0.034 -0.030
 TransDip  -0.013 -0.059  0.077    0.090  0.027  0.019   -0.058 -0.038 -0.037

 Mode:                25                     26                     27
 Frequency:      1523.86                2990.40                3005.70
 Force Cnst:      1.4827                 5.5542                 5.5257
 Red. Mass:       1.0837                 1.0542                 1.0381
 IR Active:          YES                    YES                    YES
 IR Intens:        4.815                 35.091                 69.560
 Raman Active:       YES                    YES                    YES
               X      Y      Z        X      Y      Z        X      Y      Z
 C          0.052 -0.018 -0.016   -0.011  0.006  0.004    0.043 -0.022 -0.011
 O          0.013 -0.015 -0.010   -0.002 -0.002 -0.002    0.003 -0.000 -0.000
 C          0.001 -0.046 -0.028    0.039 -0.046 -0.019    0.009 -0.015 -0.004
 C          0.001 -0.004  0.003    0.001  0.004  0.001    0.002  0.002 -0.001
 O          0.000  0.002  0.003   -0.000  0.000 -0.000   -0.000  0.000 -0.000
 H          0.042 -0.018  0.009    0.013  0.061  0.041   -0.059 -0.217 -0.143
 H         -0.377  0.015  0.411    0.066 -0.152  0.082   -0.264  0.548 -0.305
 H         -0.376  0.357 -0.139    0.060  0.018 -0.166   -0.229 -0.072  0.579
 H         -0.035  0.449 -0.025   -0.236 -0.026  0.586   -0.051 -0.003  0.141
 H         -0.099  0.152  0.385   -0.195  0.607 -0.340   -0.053  0.183 -0.096
 H          0.042 -0.022 -0.003   -0.014 -0.043 -0.028   -0.007 -0.023 -0.015
 H         -0.030  0.038 -0.011   -0.005  0.001  0.013   -0.013 -0.000  0.031
 H         -0.019  0.030 -0.025   -0.001  0.002 -0.000   -0.002  0.003 -0.000
 TransDip  -0.030  0.054  0.033   -0.001 -0.173 -0.078    0.255 -0.075 -0.027

 Mode:                28                     29                     30
 Frequency:      3018.34                3038.24                3058.43
 Force Cnst:      5.7906                 5.9606                 6.0884
 Red. Mass:       1.0788                 1.0960                 1.1047
 IR Active:          YES                    YES                    YES
 IR Intens:        5.942                111.550                 39.247
 Raman Active:       YES                    YES                    YES
               X      Y      Z        X      Y      Z        X      Y      Z
 C         -0.002 -0.001  0.003    0.000  0.006 -0.009    0.001  0.052 -0.077
 O         -0.000  0.000  0.000    0.000  0.000 -0.000    0.000  0.000 -0.000
 C         -0.007 -0.024  0.043    0.006  0.039 -0.068   -0.001 -0.006  0.010
 C          0.033  0.012 -0.052    0.022  0.012 -0.033   -0.001 -0.001  0.002
 O         -0.001  0.002 -0.001   -0.001  0.000  0.000    0.000  0.000  0.000
 H          0.003  0.010  0.006   -0.002 -0.005 -0.005   -0.005 -0.002 -0.030
 H         -0.001 -0.003  0.002    0.034 -0.061  0.031    0.265 -0.552  0.280
 H          0.023  0.006 -0.051   -0.038 -0.009  0.080   -0.268 -0.056  0.668
 H          0.165  0.005 -0.387   -0.244 -0.009  0.564    0.037  0.006 -0.078
 H         -0.090  0.273 -0.142    0.165 -0.466  0.246   -0.027  0.067 -0.040
 H         -0.066 -0.155 -0.114   -0.057 -0.132 -0.093    0.004  0.009  0.006
 H         -0.307 -0.011  0.758   -0.197 -0.006  0.477    0.010  0.000 -0.026
 H         -0.000  0.005  0.003    0.003  0.003  0.001   -0.000 -0.000 -0.001
 TransDip   0.060  0.028 -0.041    0.070  0.179 -0.278   -0.001  0.110 -0.168

 Mode:                31                     32                     33
 Frequency:      3115.13                3153.91                3861.33
 Force Cnst:      6.2656                 6.4350                 9.3610
 Red. Mass:       1.0959                 1.0980                 1.0656
 IR Active:          YES                    YES                    YES
 IR Intens:       29.824                 24.863                 39.467
 Raman Active:       YES                    YES                    YES
               X      Y      Z        X      Y      Z        X      Y      Z
 C          0.000 -0.000 -0.000   -0.007 -0.075 -0.051   -0.000 -0.000  0.000
 O          0.000  0.000  0.000   -0.000 -0.000 -0.000    0.000 -0.000 -0.000
 C          0.003 -0.002 -0.005    0.000  0.001  0.000    0.000  0.000  0.000
 C         -0.023 -0.062 -0.060    0.000  0.000  0.000   -0.001 -0.001 -0.001
 O          0.001  0.001  0.001   -0.000  0.000 -0.000   -0.028 -0.049 -0.026
 H          0.000  0.000  0.000    0.216  0.781  0.520   -0.000 -0.000 -0.000
 H         -0.002  0.004 -0.002   -0.066  0.134 -0.090    0.001 -0.001  0.000
 H         -0.003 -0.001  0.004   -0.067 -0.034  0.171    0.000  0.000 -0.000
 H         -0.025 -0.002  0.055    0.001  0.001  0.002    0.000 -0.001 -0.001
 H         -0.007  0.013 -0.007    0.002 -0.001  0.001   -0.001 -0.001 -0.001
 H          0.359  0.744  0.497   -0.001 -0.002 -0.001    0.004  0.009  0.007
 H         -0.102 -0.011  0.220   -0.001  0.000  0.001   -0.000  0.003 -0.003
 H         -0.009 -0.004 -0.011    0.001  0.000  0.000    0.457  0.782  0.419
 TransDip  -0.034 -0.133 -0.109   -0.039 -0.127 -0.089    0.082  0.177  0.051

 STANDARD THERMODYNAMIC QUANTITIES AT   298.15 K  AND     1.00 ATM

   This Molecule has  0 Imaginary Frequencies
   Zero point vibrational energy:       71.923 kcal/mol

   Atom    1 Element C  Has Mass   12.00000
   Atom    2 Element O  Has Mass   15.99491
   Atom    3 Element C  Has Mass   12.00000
   Atom    4 Element C  Has Mass   12.00000
   Atom    5 Element O  Has Mass   15.99491
   Atom    6 Element H  Has Mass    1.00783
   Atom    7 Element H  Has Mass    1.00783
   Atom    8 Element H  Has Mass    1.00783
   Atom    9 Element H  Has Mass    1.00783
   Atom   10 Element H  Has Mass    1.00783
   Atom   11 Element H  Has Mass    1.00783
   Atom   12 Element H  Has Mass    1.00783
   Atom   13 Element H  Has Mass    1.00783
   Molecular Mass:    76.052460 amu
   Principal axes and moments of inertia in amu*Bohr^2:
                             1           2           3
    Eigenvalues --      137.54516   654.06082   726.56413
          X               0.93265    -0.07050    -0.35382
          Y               0.09851     0.99322     0.06176
          Z               0.34706    -0.09245     0.93327
   Rotational Symmetry Number is   1
   The Molecule is an Asymmetric Top
   Translational Enthalpy:        0.889 kcal/mol
   Rotational Enthalpy:           0.889 kcal/mol
   Vibrational Enthalpy:         74.109 kcal/mol
   gas constant (RT):             0.592 kcal/mol
   Translational Entropy:        38.902  cal/mol.K
   Rotational Entropy:           25.683  cal/mol.K
   Vibrational Entropy:          12.959  cal/mol.K

   Total Enthalpy:               76.479 kcal/mol
   Total Entropy:                77.544  cal/mol.K
Archival summary:
1\1\nid00052\FREQ\ProcedureUnspecified\BasisUnspecified\238\cgrambow\MonFeb1111:14:422019MonFeb1111:14:422019\0\\#,FREQ,ProcedureUnspecified,BasisUnspecified,\\0,1\O\C,1,1.40322\H,2,1.08913,1,107.631\H,2,1.09757,1,111.312,3,119.283,0\H,2,1.09758,1,111.401,3,-119.526,0\C,1,1.40901,2,113.169,3,-179.723,0\H,6,1.09935,1,110.064,2,-55.0958,0\H,6,1.09984,1,110.619,2,64.5677,0\C,6,1.51074,1,107.464,2,-174.802,0\H,9,1.09153,6,109.653,1,-179.708,0\H,9,1.09785,6,109.155,1,-61.5342,0\O,9,1.40906,6,111.72,1,61.6269,0\H,12,0.960965,9,106.815,6,-51.9381,0\\\@

 Total job time:  1893.04s(wall), 3792.05s(cpu) 
 Mon Feb 11 11:14:42 2019

        *************************************************************
        *                                                           *
        *  Thank you very much for using Q-Chem.  Have a nice day.  *
        *                                                           *
        *************************************************************


