
Running Job 1 of 3 ts_optfreq0327.in
qchem ts_optfreq0327.in_18670.0 /tmp/qchem18670/ 1
/global/common/cori/software/qchem/5.1/exe/qcprog.exe ts_optfreq0327.in_18670.0 /tmp/qchem18670/
Check license passed

                  Welcome to Q-Chem
     A Quantum Leap Into The Future Of Chemistry


 Q-Chem 5.1, Q-Chem, Inc., Pleasanton, CA (2018)

 Yihan Shao,  Zhengting Gan,  E. Epifanovsky,  A. T. B. Gilbert,  M. Wormit,  
 J. Kussmann,  A. W. Lange,  A. Behn,  Jia Deng,  Xintian Feng,  D. Ghosh,  
 M. Goldey,  P. R. Horn,  L. D. Jacobson,  I. Kaliman,  T. Kus,  A. Landau,  
 Jie Liu,  E. I. Proynov,  R. M. Richard,  R. P. Steele,  E. J. Sundstrom,  
 H. L. Woodcock III,  P. M. Zimmerman,  D. Zuev,  B. Albrecht,  E. Alguire,  
 S. A. Baeppler,  D. Barton,  Z. Benda,  Y. A. Bernard,  E. J. Berquist,  
 K. B. Bravaya,  H. Burton,  D. Casanova,  Chun-Min Chang,  Yunqing Chen,  
 A. Chien,  K. D. Closser,  M. P. Coons,  S. Coriani,  S. Dasgupta,  
 A. L. Dempwolff,  M. Diedenhofen,  Hainam Do,  R. G. Edgar,  Po-Tung Fang,  
 S. Faraji,  S. Fatehi,  Qingguo Feng,  K. D. Fenk,  J. Fosso-Tande,  
 Qinghui Ge,  A. Ghysels,  G. Gidofalvi,  J. Gomes,  J. Gonthier,  A. Gunina,  
 D. Hait,  M. W. D. Hanson-Heine,  P. H. P. Harbach,  A. W. Hauser,  
 J. E. Herr,  E. G. Hohenstein,  Z. C. Holden,  Kerwin Hui,  B. C. Huynh,  
 T.-C. Jagau,  Hyunjun Ji,  B. Kaduk,  K. Khistyaev,  Jaehoon Kim,  
 P. Klunzinger,  K. Koh,  D. Kosenkov,  L. Koulias,  T. Kowalczyk,  
 C. M. Krauter,  A. Kunitsa,  Ka Un Lao,  A. Laurent,  K. V. Lawler,  
 Joonho Lee,  D. Lefrancois,  S. Lehtola,  D. S. Levine,  Yi-Pei Li,  
 You-Sheng Lin,  Fenglai Liu,  E. Livshits,  A. Luenser,  P. Manohar,  
 E. Mansoor,  S. F. Manzer,  Shan-Ping Mao,  Yuezhi Mao,  N. Mardirossian,  
 A. V. Marenich,  T. Markovich,  L. A. Martinez-Martinez,  S. A. Maurer,  
 N. J. Mayhall,  S. C. McKenzie,  J.-M. Mewes,  A. F. Morrison,  
 J. W. Mullinax,  K. Nanda,  T. S. Nguyen-Beck,  R. Olivares-Amaya,  
 J. A. Parkhill,  T. M. Perrine,  F. Plasser,  P. Pokhilko,  S. Prager,  
 A. Prociuk,  E. Ramos,  D. R. Rehn,  F. Rob,  M. Schneider,  N. Sergueev,  
 S. M. Sharada,  S. Sharma,  D. W. Small,  T. Stauch,  T. Stein,  
 Yu-Chuan Su,  A. J. W. Thom,  A. Tkatchenko,  T. Tsuchimochi,  N. M. Tubman,  
 L. Vogt,  M. L. Vidal,  O. Vydrov,  M. A. Watson,  J. Wenzel,  
 M. de Wergifosse,  T. A. Wesolowski,  A. White,  J. Witte,  A. Yamada,  
 Jun Yang,  K. Yao,  S. Yeganeh,  S. R. Yost,  Zhi-Qiang You,  A. Zech,  
 Igor Ying Zhang,  Xing Zhang,  Yan Zhao,  Ying Zhu,  B. R. Brooks,  
 G. K. L. Chan,  C. J. Cramer,  M. S. Gordon,  W. J. Hehre,  A. Klamt,  
 M. W. Schmidt,  C. D. Sherrill,  D. G. Truhlar,  A. Aspuru-Guzik,  R. Baer,  
 A. T. Bell,  N. A. Besley,  Jeng-Da Chai,  R. A. DiStasio Jr.,  A. Dreuw,  
 B. D. Dunietz,  T. R. Furlani,  Chao-Ping Hsu,  Yousung Jung,  Jing Kong,  
 D. S. Lambrecht,  WanZhen Liang,  C. Ochsenfeld,  V. A. Rassolov,  
 L. V. Slipchenko,  J. E. Subotnik,  T. Van Voorhis,  J. M. Herbert,  
 A. I. Krylov,  P. M. W. Gill,  M. Head-Gordon

 Contributors to earlier versions of Q-Chem not listed above: 
 R. D. Adamson,  B. Austin,  J. Baker,  G. J. O. Beran,  K. Brandhorst,  
 S. T. Brown,  E. F. C. Byrd,  A. K. Chakraborty,  C.-L. Cheng,  
 Siu Hung Chien,  D. M. Chipman,  D. L. Crittenden,  H. Dachsel,  
 R. J. Doerksen,  A. D. Dutoi,  L. Fusti-Molnar,  W. A. Goddard III,  
 A. Golubeva-Zadorozhnaya,  S. R. Gwaltney,  G. Hawkins,  A. Heyden,  
 S. Hirata,  G. Kedziora,  F. J. Keil,  C. Kelley,  Jihan Kim,  R. A. King,  
 R. Z. Khaliullin,  P. P. Korambath,  W. Kurlancheek,  A. M. Lee,  M. S. Lee,  
 S. V. Levchenko,  Ching Yeh Lin,  D. Liotard,  R. C. Lochan,  I. Lotan,  
 P. E. Maslen,  N. Nair,  D. P. O'Neill,  D. Neuhauser,  E. Neuscamman,  
 C. M. Oana,  R. Olson,  B. Peters,  R. Peverati,  P. A. Pieniazek,  
 Y. M. Rhee,  J. Ritchie,  M. A. Rohrdanz,  E. Rosta,  N. J. Russ,  
 H. F. Schaefer III,  N. E. Schultz,  N. Shenvi,  A. C. Simmonett,  A. Sodt,  
 D. Stuck,  K. S. Thanthiriwatte,  V. Vanovschi,  Tao Wang,  A. Warshel,  
 C. F. Williams,  Q. Wu,  X. Xu,  W. Zhang

 Please cite Q-Chem as follows:
 Y. Shao et al., Mol. Phys. 113, 184-215 (2015)
 DOI: 10.1080/00268976.2014.952696

 Q-Chem 5.1.0 for Intel X86 EM64T Linux

 Parts of Q-Chem use Armadillo 8.300.2 (Tropical Shenanigans).
 http://arma.sourceforge.net/

 Q-Chem begins on Tue Feb 12 23:30:30 2019  

Host: cori07
0

     Scratch files written to /tmp/qchem18670//
 Jun2518 |scratch|qcdevops|jenkins|workspace|build_RNUM -1
Processing $rem in /global/common/cori/software/qchem/5.1/config/preferences.
 MEM_TOTAL  96000 

Checking the input file for inconsistencies... 	...done.

--------------------------------------------------------------
User input:
--------------------------------------------------------------
$molecule
0 1
C   1.7111978834   0.9235326995   0.3359952851
O   0.4853509855   0.4907393430   0.9153037442
C  -0.4288364041  -1.1257844457  -0.3527084620
C  -1.7697616201  -0.5660321947  -0.6075883954
O  -1.2757815407   0.7291882049  -0.7786352566
H   1.9860105449   1.9163417304   0.7304251369
H   2.5034690089   0.2129828182   0.6099645091
H   1.6449355491   0.9894673908  -0.7624102499
H   0.2766344670  -1.1157278649  -1.1799631561
H  -0.1325407614  -1.6403419934   0.5574217210
H  -2.2523003147  -0.9872300882  -1.5130781691
H  -2.4606152021  -0.7036231265   0.2474893107
H  -0.2970915958   0.8737865267   0.3292249820
$end

$rem
JOBTYPE                   FREQ
METHOD                    wB97X-D3
BASIS                     def2-TZVP
UNRESTRICTED              TRUE
SCF_ALGORITHM             DIIS
MAX_SCF_CYCLES            100
SCF_CONVERGENCE           8
SYM_IGNORE                TRUE
SYMMETRY                  FALSE
WAVEFUNCTION_ANALYSIS     FALSE
$end

--------------------------------------------------------------
 Adding empirical dispersion correction 
 ----------------------------------------------------------------
 Doing -D3(0) with
 s6  =   1.00000
 s8  =   1.00000
 rs6 =   1.28100
 rs8 =   1.09400
 -D3 energy without 3body term =     -0.0029313972 hartrees
 ----------------------------------------------------------------
             Standard Nuclear Orientation (Angstroms)
    I     Atom           X                Y                Z
 ----------------------------------------------------------------
    1      C       1.7111978834     0.9235326995     0.3359952851
    2      O       0.4853509855     0.4907393430     0.9153037442
    3      C      -0.4288364041    -1.1257844457    -0.3527084620
    4      C      -1.7697616201    -0.5660321947    -0.6075883954
    5      O      -1.2757815407     0.7291882049    -0.7786352566
    6      H       1.9860105449     1.9163417304     0.7304251369
    7      H       2.5034690089     0.2129828182     0.6099645091
    8      H       1.6449355491     0.9894673908    -0.7624102499
    9      H       0.2766344670    -1.1157278649    -1.1799631561
   10      H      -0.1325407614    -1.6403419934     0.5574217210
   11      H      -2.2523003147    -0.9872300882    -1.5130781691
   12      H      -2.4606152021    -0.7036231265     0.2474893107
   13      H      -0.2970915958     0.8737865267     0.3292249820
 ----------------------------------------------------------------
 Nuclear Repulsion Energy =   187.8300012878 hartrees
 There are       21 alpha and       21 beta electrons
 Requested basis set is def2-TZVP
 There are 87 shells and 203 basis functions

 Total QAlloc Memory Limit  96000 MB
 Mega-Array Size       188 MB
 MEM_STATIC part       192 MB

                       Distance Matrix (Angstroms)
             C (  1)   O (  2)   C (  3)   C (  4)   O (  5)   H (  6)
   O (  2)  1.423239
   C (  3)  3.041999  2.248720
   C (  4)  3.902081  2.919161  1.475251
   O (  5)  3.194091  2.455173  2.083183  1.396735
   H (  6)  1.103071  2.078100  4.032269  4.696625  3.784955
   H (  7)  1.098924  2.059898  3.364142  4.511075  4.059238  1.784294
   H (  8)  1.102376  2.099545  2.990431  3.755490  2.932336  1.789968
   H (  9)  2.917993  2.648479  1.087263  2.194884  2.444335  3.970516
   H ( 10)  3.165731  2.247527  1.086691  2.278570  2.950715  4.143451
   H ( 11)  4.772777  3.946665  2.165797  1.109127  2.106914  5.606007
   H ( 12)  4.478783  3.248260  2.160227  1.107866  2.123608  5.183621
   H ( 13)  2.008917  1.049967  2.116760  2.262621  1.485294  2.541739
             H (  7)   H (  8)   H (  9)   H ( 10)   H ( 11)   H ( 12)
   H (  8)  1.795389
   H (  9)  3.150890  2.545279
   H ( 10)  3.222751  3.437626  1.860417
   H ( 11)  5.344639  4.433879  2.554014  3.034288
   H ( 12)  5.060997  4.554339  3.114480  2.528523  1.795390
   H ( 13)  2.891127  2.230811  2.562221  2.529821  3.268074  2.678756

 
 A cutoff of  1.0D-11 yielded   3589 shell pairs
 There are     20011 function pairs (     25403 Cartesian)
 
 -------------------------------------------------------
 OpenMP Integral Computing Module                       
 Release: version 1.0, May 2013, Q-Chem Inc. Pittsburgh 
 -------------------------------------------------------
 Integral Job Info:
 Integral job number is                      11
 Integral operator is                         1
 short-range coefficients              19572800
 long-range coefficients              100000000
 Omega coefficients                         250
 if combine SR and LR in K                    1
 Integral screening is                        0
 Integral computing path is                   2
 max size of driver memory is            800000
 size of driver memory is                776718
 size of scratch memory is              4473992
 max col of scratch BK array              10000
 max len of scratch array in speh3          662
 max len of scratch index in speh4           32
 max int batch size is                      520
 min int batch size is                       52
 fixed nKL is                                52
 max L of basis functions is                  3
 order of int derivative is                   0
 number of shells is                         87
 number of basis is                         228
 number of cartesian basis is               228
 number of contracted shell pairs          3589
 number of primitive shell pairs           8110
 maxK2 (contraction) of shell pair           36
 max number of K2 of shell pair               1
 max number of CS2 of shell pair            575
 max number of PS2 of shell pair           1026
 mem total for path MDJ                  565364
 -------------------------------------------------------
 Smallest overlap matrix eigenvalue = 3.81E-04
 Guess from superposition of atomic densities
 Warning:  Energy on first SCF cycle will be non-variational
 SAD guess density has 42.000000 electrons

 -----------------------------------------------------------------------
  General SCF calculation program by
  Eric Jon Sundstrom, Paul Horn, Yuezhi Mao, Dmitri Zuev, Alec White,
  David Stuck, Shaama M.S., Shane Yost, Joonho Lee, David Small,
  Daniel Levine, Susi Lehtola, Hugh Burton, Evgeny Epifanovsky
 -----------------------------------------------------------------------
 Exchange:     0.1957 Hartree-Fock + 1.0000 wB97X-D3 + LR-HF
 Correlation:  1.0000 wB97X-D3
 Using SG-2 standard quadrature grid
 Dispersion:   Grimme D3
 using 16 threads for integral computing
 -------------------------------------------------------
 OpenMP Integral computing Module                
 Release: version 1.0, May 2013, Q-Chem Inc. Pittsburgh 
 -------------------------------------------------------
 using 16 threads for integral computing
 -------------------------------------------------------
 OpenMP Integral computing Module                
 Release: version 1.0, May 2013, Q-Chem Inc. Pittsburgh 
 -------------------------------------------------------
 -------------------------------------------------------
 OpenMP BLAS3 based DFT computing Module                
 Release: version 1.0, May 2013, Q-Chem Inc. Pittsburgh 
 -------------------------------------------------------
 A unrestricted SCF calculation will be
 performed using DIIS
 SCF converges when DIIS error is below 1.0e-08
 ---------------------------------------
  Cycle       Energy         DIIS error
 ---------------------------------------
    1    -270.0822141103      1.72e-02  
    2    -269.3184003167      2.84e-03  
    3    -269.0962471024      4.77e-03  
    4    -269.4527879780      6.92e-04  
    5    -269.4586495586      3.38e-04  
    6    -269.4602025564      5.78e-05  
    7    -269.4602773043      1.89e-05  
    8    -269.4602893863      7.52e-06  
    9    -269.4602935456      3.37e-06  
   10    -269.4602946143      1.58e-06  
   11    -269.4602947815      6.13e-07  
   12    -269.4602948071      1.52e-07  
   13    -269.4602948104      7.34e-08  
   14    -269.4602948113      2.84e-08  
   15    -269.4602948115      1.05e-08  
   16    -269.4602948115      3.15e-09  Convergence criterion met
 ---------------------------------------
 SCF time:   CPU 491.06s  wall 38.00s 
<S^2> =          0.000000000
 SCF   energy in the final basis set =     -269.4602948115
 Total energy in the final basis set =     -269.4602948115
 No wavefunction analysis requested
 Calculating MO derivatives via CPSCF
 D1JvT checksum  = 1274208 35394.9475336271
 D1KAT checksum  = 2626572 3328.9961608000
 D1JvT checksum  = 1274208 23339.2875416128
 D1KAT checksum  = 2626572 1484.3025723755
   1         3          39      0.173903    0.031999
   2         3          39      0.041755    0.008569
   3         3          39      0.007315    0.001629
   4         3          39      0.001124    0.000276
   5        18          24      0.000124    0.000032
   6        39           3      0.000008    0.000004
   7        42           0      0.000000    0.000000    Roots Converged
 Time for AOints: 190.3 s (CPU) 12.9 s (wall)
 ------------------------------------------------------------------------------
                     AOints        : Timing summary (seconds)
 ------------------------------------------------------------------------------
     job step          cpu (% of tot)      sys (% of tot)     wall (% of tot)
 ------------------------------------------------------------------------------
  cpscf_lag         0.1532E+04 (41.4)   0.2981E-02 (51.8)   0.3513E+03 (40.9)
  iterzp            0.1981E+04 (53.5)   0.2337E-02 (40.6)   0.4949E+03 (57.6)
  make_fx           0.0000E+00 ( 0.0)   0.0000E+00 ( 0.0)   0.0000E+00 ( 0.0)
  AOints            0.1903E+03 ( 5.1)   0.4280E-03 ( 7.4)   0.1294E+02 ( 1.5)
 ------------------------------------------------------------------------------
   Grand Totals     0.3704E+04          0.5754E-02          0.8593E+03
 ------------------------------------------------------------------------------
 Calculating analytic Hessian of the SCF energy
 Polarizability Matrix (a.u.)
            1           2           3
    1 -63.9414340  -5.2710789  -9.2080121
    2  -5.2710789 -56.3293590  -3.1641174
    3  -9.2080121  -3.1641174 -46.1841825
 Running MAKENN_D3_FD2ND
 
 Direct stationary perturbation theory relativistic correction:
 
 rels  =       0.086932052156
 relv  =      -0.378317427947
 rel2e =       0.000000000000
 E_rel =      -0.291385375791
 
 Hessian of the SCF Energy
            1           2           3           4           5           6
    1   0.4982250  -0.0375740   0.0487299  -0.1876125  -0.0224390   0.0393674
    2  -0.0375740   0.5537878   0.0064603  -0.0399189  -0.0906304   0.0282599
    3   0.0487299   0.0064603   0.5471149   0.0608054   0.0257612  -0.1071459
    4  -0.1876125  -0.0399189   0.0608054   0.4280978   0.0051573   0.0236433
    5  -0.0224390  -0.0906304   0.0257612   0.0051573   0.1388319  -0.1053359
    6   0.0393674   0.0282599  -0.1071459   0.0236433  -0.1053359   0.2384987
    7  -0.0098960  -0.0032085   0.0033295   0.0006473   0.0233441   0.0129562
    8  -0.0059352  -0.0033923   0.0020239   0.0074900  -0.0110133   0.0080077
    9  -0.0097301   0.0043603   0.0088985   0.0111003   0.0255423  -0.0002268
   10  -0.0028852   0.0000704   0.0023802  -0.0001281   0.0154896   0.0017870
   11  -0.0048034  -0.0007241   0.0035997   0.0141207   0.0127715   0.0115614
   12   0.0007710   0.0004923  -0.0003417  -0.0076077   0.0090996  -0.0037348
   13   0.0090223   0.0032799  -0.0075291  -0.0454532  -0.0009329  -0.0435730
   14  -0.0027219   0.0027800   0.0028788  -0.0112418   0.0338931  -0.0013409
   15   0.0044624   0.0048719  -0.0083838  -0.0501610   0.0054825  -0.0247340
   16  -0.0572682  -0.0398867  -0.0206862  -0.0212542  -0.0350186  -0.0051113
   17  -0.0428403  -0.2461967  -0.0837919  -0.0141578  -0.0058319   0.0020350
   18  -0.0215656  -0.0851458  -0.0883512   0.0082250   0.0172937   0.0078475
   19  -0.1645802   0.1124909  -0.0460194  -0.0367598   0.0136384  -0.0057575
   20   0.1197670  -0.1660651   0.0450204  -0.0126071   0.0130474  -0.0041025
   21  -0.0503851   0.0465498  -0.0727808   0.0160700  -0.0096833   0.0065452
   22  -0.0549400   0.0028190  -0.0314029  -0.0095963  -0.0072412   0.0362087
   23   0.0017982  -0.0546019   0.0091654  -0.0049637   0.0009227   0.0127097
   24  -0.0256950   0.0105972  -0.2892706   0.0135692   0.0048430  -0.0110956
   25   0.0008980   0.0002024  -0.0009479  -0.0007388  -0.0004015  -0.0009716
   26   0.0017456   0.0016491  -0.0014882   0.0004571  -0.0031911  -0.0053415
   27   0.0004192   0.0001749  -0.0000598  -0.0002336  -0.0006860  -0.0015041
   28   0.0006436  -0.0011280  -0.0000244  -0.0013157  -0.0063910  -0.0004792
   29   0.0024135  -0.0021197  -0.0027021  -0.0066050  -0.0205198  -0.0055162
   30   0.0013288  -0.0008398  -0.0014758  -0.0035109  -0.0113590  -0.0007001
   31   0.0000680   0.0001702  -0.0000889  -0.0011759   0.0023093  -0.0005578
   32   0.0008581   0.0003546  -0.0003642  -0.0030892  -0.0001576  -0.0028272
   33   0.0002953   0.0000354  -0.0000643  -0.0001199  -0.0003897  -0.0002333
   34   0.0001185  -0.0000218   0.0000087  -0.0002317  -0.0009816  -0.0012059
   35   0.0002999   0.0000362  -0.0002775  -0.0011325  -0.0010053  -0.0012920
   36  -0.0003398  -0.0002817   0.0001732   0.0011996   0.0002668   0.0008230
   37  -0.0317933   0.0027051  -0.0085548  -0.1244789   0.0134673  -0.0563062
   38  -0.0105684   0.0051224  -0.0062860   0.0664909  -0.0671172   0.0631826
   39   0.0123415  -0.0155348   0.0116875  -0.0729798   0.0391648  -0.1043398
            7           8           9          10          11          12
    1  -0.0098960  -0.0059352  -0.0097301  -0.0028852  -0.0048034   0.0007710
    2  -0.0032085  -0.0033923   0.0043603   0.0000704  -0.0007241   0.0004923
    3   0.0033295   0.0020239   0.0088985   0.0023802   0.0035997  -0.0003417
    4   0.0006473   0.0074900   0.0111003  -0.0001281   0.0141207  -0.0076077
    5   0.0233441  -0.0110133   0.0255423   0.0154896   0.0127715   0.0090996
    6   0.0129562   0.0080077  -0.0002268   0.0017870   0.0115614  -0.0037348
    7   0.5075394  -0.1100540  -0.0818724  -0.2485426   0.0347265  -0.0174034
    8  -0.1100540   0.2304194  -0.1403056   0.0727836  -0.0098452   0.0161923
    9  -0.0818724  -0.1403056   0.5707138  -0.0401160  -0.0068048  -0.0955826
   10  -0.2485426   0.0727836  -0.0401160   0.5487056   0.0212348  -0.0282626
   11   0.0347265  -0.0098452  -0.0068048   0.0212348   0.3467270   0.0224172
   12  -0.0174034   0.0161923  -0.0955826  -0.0282626   0.0224172   0.5484885
   13   0.0068503  -0.0181482   0.0089179  -0.0676589  -0.0344921   0.0153540
   14   0.0008048  -0.0521443  -0.0118104  -0.0932551  -0.2355013  -0.0034142
   15  -0.0046490  -0.0056233  -0.0074796   0.0197049   0.0244340  -0.0705747
   16   0.0023546   0.0007659   0.0042871   0.0011496   0.0014753   0.0001427
   17   0.0013978   0.0009405   0.0015556   0.0003437   0.0006387  -0.0001047
   18  -0.0011362  -0.0003733  -0.0020514  -0.0004678  -0.0005703   0.0000818
   19   0.0008734   0.0010677   0.0009046   0.0002520   0.0009379  -0.0002489
   20  -0.0002446   0.0003763  -0.0005889  -0.0001755  -0.0000950   0.0000115
   21  -0.0001974   0.0001309  -0.0003126  -0.0001311   0.0000741   0.0001095
   22   0.0008604   0.0002657   0.0021523   0.0004043  -0.0001108   0.0000359
   23  -0.0006158   0.0001306   0.0007678  -0.0004325  -0.0000779  -0.0004384
   24  -0.0017815  -0.0008083  -0.0019363  -0.0007878  -0.0009607   0.0000903
   25  -0.1721316   0.0092755   0.1441205  -0.0167671  -0.0038987   0.0247540
   26  -0.0023610  -0.0352137   0.0089137   0.0010678  -0.0067064   0.0012173
   27   0.1442536   0.0089801  -0.2287913  -0.0061772  -0.0003438   0.0113013
   28  -0.0808762   0.0490568  -0.0607564   0.0063111   0.0025967  -0.0214476
   29   0.0456139  -0.1062081   0.1269167   0.0181658   0.0105704   0.0097261
   30  -0.0579408   0.1226269  -0.2612082   0.0074100   0.0000614   0.0023503
   31  -0.0130057  -0.0036018  -0.0264915  -0.0936277  -0.0271636  -0.0801892
   32   0.0053635   0.0015524   0.0169310  -0.0176189  -0.0596532  -0.0592217
   33  -0.0028634  -0.0014407  -0.0052221  -0.0764206  -0.0621158  -0.2129386
   34  -0.0179799   0.0004198   0.0250888  -0.1339311  -0.0030167   0.1056715
   35   0.0116777  -0.0003873  -0.0139165  -0.0091732  -0.0511133   0.0137422
   36  -0.0075660   0.0006871   0.0040481   0.1101100   0.0083809  -0.1929997
   37   0.0233066  -0.0033858   0.0223948   0.0067181  -0.0016066   0.0084303
   38  -0.0064445  -0.0152149  -0.0115612  -0.0085006  -0.0069912  -0.0097194
   39   0.0148709  -0.0100977   0.0191504   0.0109709   0.0002668   0.0137504
           13          14          15          16          17          18
    1   0.0090223  -0.0027219   0.0044624  -0.0572682  -0.0428403  -0.0215656
    2   0.0032799   0.0027800   0.0048719  -0.0398867  -0.2461967  -0.0851458
    3  -0.0075291   0.0028788  -0.0083838  -0.0206862  -0.0837919  -0.0883512
    4  -0.0454532  -0.0112418  -0.0501610  -0.0212542  -0.0141578   0.0082250
    5  -0.0009329   0.0338931   0.0054825  -0.0350186  -0.0058319   0.0172937
    6  -0.0435730  -0.0013409  -0.0247340  -0.0051113   0.0020350   0.0078475
    7   0.0068503   0.0008048  -0.0046490   0.0023546   0.0013978  -0.0011362
    8  -0.0181482  -0.0521443  -0.0056233   0.0007659   0.0009405  -0.0003733
    9   0.0089179  -0.0118104  -0.0074796   0.0042871   0.0015556  -0.0020514
   10  -0.0676589  -0.0932551   0.0197049   0.0011496   0.0003437  -0.0004678
   11  -0.0344921  -0.2355013   0.0244340   0.0014753   0.0006387  -0.0005703
   12   0.0153540  -0.0034142  -0.0705747   0.0001427  -0.0001047   0.0000818
   13   0.1068163   0.0997015   0.0130732  -0.0018442  -0.0010029   0.0005320
   14   0.0997015   0.2961732  -0.0295001   0.0019568   0.0003364  -0.0009897
   15   0.0130732  -0.0295001   0.0948823  -0.0011514  -0.0005802   0.0002942
   16  -0.0018442   0.0019568  -0.0011514   0.0710553   0.0575030   0.0180275
   17  -0.0010029   0.0003364  -0.0005802   0.0575030   0.2663369   0.0884813
   18   0.0005320  -0.0009897   0.0002942   0.0180275   0.0884813   0.0877943
   19  -0.0017705  -0.0006313  -0.0023707   0.0064066  -0.0034294   0.0014351
   20  -0.0000772  -0.0004406  -0.0007246   0.0197585  -0.0180804   0.0089255
   21   0.0003581  -0.0002846   0.0011012   0.0088101  -0.0092149   0.0040638
   22   0.0002945   0.0013043  -0.0006255   0.0007408   0.0015103  -0.0056951
   23   0.0001759  -0.0010973  -0.0001084  -0.0033502   0.0028446  -0.0287634
   24   0.0017681  -0.0011056   0.0020203  -0.0027942   0.0008128  -0.0108317
   25   0.0058085  -0.0046436  -0.0028238  -0.0001285   0.0000169   0.0001725
   26   0.0112077  -0.0000676  -0.0035819   0.0000776  -0.0000166   0.0004619
   27   0.0019447  -0.0000922  -0.0014091  -0.0001071   0.0000947   0.0002225
   28  -0.0002401   0.0072301   0.0010149  -0.0005167   0.0000442  -0.0000353
   29  -0.0066877   0.0136958   0.0017096  -0.0014132  -0.0003048   0.0006261
   30  -0.0025829   0.0054934   0.0024692  -0.0006952  -0.0001835   0.0003410
   31  -0.0016244  -0.0183469  -0.0027591   0.0000166  -0.0000401   0.0000138
   32  -0.0289086  -0.0248068  -0.0272038  -0.0000920  -0.0000802   0.0000164
   33   0.0002585  -0.0002509   0.0126056  -0.0000474  -0.0000338   0.0000191
   34  -0.0061894  -0.0113252   0.0044395  -0.0000424  -0.0000294  -0.0000312
   35  -0.0269911  -0.0111423   0.0255455  -0.0001083  -0.0000357   0.0001043
   36   0.0048759   0.0112124   0.0039469   0.0000551   0.0000498  -0.0000265
   37  -0.0040113   0.0311683   0.0218455  -0.0006692   0.0006840   0.0005253
   38   0.0028757  -0.0216782   0.0052787  -0.0016680  -0.0005507  -0.0000666
   39   0.0066025   0.0292041  -0.0047386  -0.0007297   0.0008797   0.0005966
           19          20          21          22          23          24
    1  -0.1645802   0.1197670  -0.0503851  -0.0549400   0.0017982  -0.0256950
    2   0.1124909  -0.1660651   0.0465498   0.0028190  -0.0546019   0.0105972
    3  -0.0460194   0.0450204  -0.0727808  -0.0314029   0.0091654  -0.2892706
    4  -0.0367598  -0.0126071   0.0160700  -0.0095963  -0.0049637   0.0135692
    5   0.0136384   0.0130474  -0.0096833  -0.0072412   0.0009227   0.0048430
    6  -0.0057575  -0.0041025   0.0065452   0.0362087   0.0127097  -0.0110956
    7   0.0008734  -0.0002446  -0.0001974   0.0008604  -0.0006158  -0.0017815
    8   0.0010677   0.0003763   0.0001309   0.0002657   0.0001306  -0.0008083
    9   0.0009046  -0.0005889  -0.0003126   0.0021523   0.0007678  -0.0019363
   10   0.0002520  -0.0001755  -0.0001311   0.0004043  -0.0004325  -0.0007878
   11   0.0009379  -0.0000950   0.0000741  -0.0001108  -0.0000779  -0.0009607
   12  -0.0002489   0.0000115   0.0001095   0.0000359  -0.0004384   0.0000903
   13  -0.0017705  -0.0000772   0.0003581   0.0002945   0.0001759   0.0017681
   14  -0.0006313  -0.0004406  -0.0002846   0.0013043  -0.0010973  -0.0011056
   15  -0.0023707  -0.0007246   0.0011012  -0.0006255  -0.0001084   0.0020203
   16   0.0064066   0.0197585   0.0088101   0.0007408  -0.0033502  -0.0027942
   17  -0.0034294  -0.0180804  -0.0092149   0.0015103   0.0028446   0.0008128
   18   0.0014351   0.0089255   0.0040638  -0.0056951  -0.0287634  -0.0108317
   19   0.1960269  -0.1242181   0.0464230  -0.0001863   0.0019988  -0.0014652
   20  -0.1242181   0.1710371  -0.0496186  -0.0008213   0.0003139  -0.0008858
   21   0.0464230  -0.0496186   0.0697550  -0.0215048   0.0214048  -0.0057250
   22  -0.0001863  -0.0008213  -0.0215048   0.0599290   0.0035268   0.0192243
   23   0.0019988   0.0003139   0.0214048   0.0035268   0.0517748  -0.0151102
   24  -0.0014652  -0.0008858  -0.0057250   0.0192243  -0.0151102   0.3177424
   25  -0.0002011   0.0000911  -0.0001527   0.0000685  -0.0003771   0.0003305
   26  -0.0001800   0.0000721   0.0000837  -0.0003830  -0.0004469   0.0006734
   27  -0.0002358  -0.0000145  -0.0002105  -0.0001105  -0.0002193   0.0004052
   28  -0.0003142   0.0001023  -0.0000051  -0.0000724   0.0000366  -0.0000408
   29  -0.0003050   0.0002183   0.0001045  -0.0003536   0.0000593   0.0004092
   30  -0.0001031   0.0002476   0.0001038  -0.0001036  -0.0000072   0.0002185
   31  -0.0000821  -0.0000327   0.0000563   0.0000263  -0.0000471   0.0000101
   32  -0.0001517   0.0000157   0.0000291   0.0000310  -0.0000466   0.0000999
   33  -0.0000156   0.0000152  -0.0000150   0.0000031   0.0000079   0.0000360
   34  -0.0000008   0.0000543   0.0000067   0.0000717   0.0000927  -0.0001284
   35  -0.0000772   0.0000087  -0.0000856   0.0001473  -0.0000482   0.0000523
   36   0.0001162  -0.0000032   0.0000100  -0.0000678   0.0000020  -0.0000437
   37   0.0003360  -0.0015966   0.0006522   0.0023994   0.0021576  -0.0022093
   38  -0.0011408  -0.0004085   0.0005101  -0.0006945   0.0002729   0.0013828
   39   0.0073372   0.0017178  -0.0026446   0.0018858   0.0005892  -0.0016098
           25          26          27          28          29          30
    1   0.0008980   0.0017456   0.0004192   0.0006436   0.0024135   0.0013288
    2   0.0002024   0.0016491   0.0001749  -0.0011280  -0.0021197  -0.0008398
    3  -0.0009479  -0.0014882  -0.0000598  -0.0000244  -0.0027021  -0.0014758
    4  -0.0007388   0.0004571  -0.0002336  -0.0013157  -0.0066050  -0.0035109
    5  -0.0004015  -0.0031911  -0.0006860  -0.0063910  -0.0205198  -0.0113590
    6  -0.0009716  -0.0053415  -0.0015041  -0.0004792  -0.0055162  -0.0007001
    7  -0.1721316  -0.0023610   0.1442536  -0.0808762   0.0456139  -0.0579408
    8   0.0092755  -0.0352137   0.0089801   0.0490568  -0.1062081   0.1226269
    9   0.1441205   0.0089137  -0.2287913  -0.0607564   0.1269167  -0.2612082
   10  -0.0167671   0.0010678  -0.0061772   0.0063111   0.0181658   0.0074100
   11  -0.0038987  -0.0067064  -0.0003438   0.0025967   0.0105704   0.0000614
   12   0.0247540   0.0012173   0.0113013  -0.0214476   0.0097261   0.0023503
   13   0.0058085   0.0112077   0.0019447  -0.0002401  -0.0066877  -0.0025829
   14  -0.0046436  -0.0000676  -0.0000922   0.0072301   0.0136958   0.0054934
   15  -0.0028238  -0.0035819  -0.0014091   0.0010149   0.0017096   0.0024692
   16  -0.0001285   0.0000776  -0.0001071  -0.0005167  -0.0014132  -0.0006952
   17   0.0000169  -0.0000166   0.0000947   0.0000442  -0.0003048  -0.0001835
   18   0.0001725   0.0004619   0.0002225  -0.0000353   0.0006261   0.0003410
   19  -0.0002011  -0.0001800  -0.0002358  -0.0003142  -0.0003050  -0.0001031
   20   0.0000911   0.0000721  -0.0000145   0.0001023   0.0002183   0.0002476
   21  -0.0001527   0.0000837  -0.0002105  -0.0000051   0.0001045   0.0001038
   22   0.0000685  -0.0003830  -0.0001105  -0.0000724  -0.0003536  -0.0001036
   23  -0.0003771  -0.0004469  -0.0002193   0.0000366   0.0000593  -0.0000072
   24   0.0003305   0.0006734   0.0004052  -0.0000408   0.0004092   0.0002185
   25   0.1771653  -0.0045005  -0.1546951   0.0078459   0.0012204  -0.0087204
   26  -0.0045005   0.0329705  -0.0099231  -0.0082738   0.0091132   0.0089963
   27  -0.1546951  -0.0099231   0.2289323   0.0153133   0.0008812  -0.0099867
   28   0.0078459  -0.0082738   0.0153133   0.0722882  -0.0445537   0.0680098
   29   0.0012204   0.0091132   0.0008812  -0.0445537   0.0983809  -0.1250198
   30  -0.0087204   0.0089963  -0.0099867   0.0680098  -0.1250198   0.2690773
   31   0.0011553   0.0008867   0.0009072  -0.0037140   0.0011994  -0.0000120
   32  -0.0005188   0.0008503  -0.0005963   0.0018668  -0.0033367  -0.0003772
   33   0.0000230   0.0003507   0.0008824  -0.0010820  -0.0008840   0.0005333
   34  -0.0037555  -0.0001160  -0.0017826   0.0009523  -0.0011487  -0.0005798
   35   0.0036627   0.0012056   0.0018735  -0.0010176  -0.0008896  -0.0001186
   36  -0.0021065  -0.0003303   0.0003229   0.0007865   0.0001585   0.0006418
   37   0.0007812   0.0003718   0.0005038  -0.0009918  -0.0075460  -0.0025001
   38  -0.0001286  -0.0002185  -0.0001293   0.0004307   0.0013409   0.0004794
   39   0.0010176  -0.0000320  -0.0001053  -0.0012537  -0.0064098  -0.0023644
           31          32          33          34          35          36
    1   0.0000680   0.0008581   0.0002953   0.0001185   0.0002999  -0.0003398
    2   0.0001702   0.0003546   0.0000354  -0.0000218   0.0000362  -0.0002817
    3  -0.0000889  -0.0003642  -0.0000643   0.0000087  -0.0002775   0.0001732
    4  -0.0011759  -0.0030892  -0.0001199  -0.0002317  -0.0011325   0.0011996
    5   0.0023093  -0.0001576  -0.0003897  -0.0009816  -0.0010053   0.0002668
    6  -0.0005578  -0.0028272  -0.0002333  -0.0012059  -0.0012920   0.0008230
    7  -0.0130057   0.0053635  -0.0028634  -0.0179799   0.0116777  -0.0075660
    8  -0.0036018   0.0015524  -0.0014407   0.0004198  -0.0003873   0.0006871
    9  -0.0264915   0.0169310  -0.0052221   0.0250888  -0.0139165   0.0040481
   10  -0.0936277  -0.0176189  -0.0764206  -0.1339311  -0.0091732   0.1101100
   11  -0.0271636  -0.0596532  -0.0621158  -0.0030167  -0.0511133   0.0083809
   12  -0.0801892  -0.0592217  -0.2129386   0.1056715   0.0137422  -0.1929997
   13  -0.0016244  -0.0289086   0.0002585  -0.0061894  -0.0269911   0.0048759
   14  -0.0183469  -0.0248068  -0.0002509  -0.0113252  -0.0111423   0.0112124
   15  -0.0027591  -0.0272038   0.0126056   0.0044395   0.0255455   0.0039469
   16   0.0000166  -0.0000920  -0.0000474  -0.0000424  -0.0001083   0.0000551
   17  -0.0000401  -0.0000802  -0.0000338  -0.0000294  -0.0000357   0.0000498
   18   0.0000138   0.0000164   0.0000191  -0.0000312   0.0001043  -0.0000265
   19  -0.0000821  -0.0001517  -0.0000156  -0.0000008  -0.0000772   0.0001162
   20  -0.0000327   0.0000157   0.0000152   0.0000543   0.0000087  -0.0000032
   21   0.0000563   0.0000291  -0.0000150   0.0000067  -0.0000856   0.0000100
   22   0.0000263   0.0000310   0.0000031   0.0000717   0.0001473  -0.0000678
   23  -0.0000471  -0.0000466   0.0000079   0.0000927  -0.0000482   0.0000020
   24   0.0000101   0.0000999   0.0000360  -0.0001284   0.0000523  -0.0000437
   25   0.0011553  -0.0005188   0.0000230  -0.0037555   0.0036627  -0.0021065
   26   0.0008867   0.0008503   0.0003507  -0.0001160   0.0012056  -0.0003303
   27   0.0009072  -0.0005963   0.0008824  -0.0017826   0.0018735   0.0003229
   28  -0.0037140   0.0018668  -0.0010820   0.0009523  -0.0010176   0.0007865
   29   0.0011994  -0.0033367  -0.0008840  -0.0011487  -0.0008896   0.0001585
   30  -0.0000120  -0.0003772   0.0005333  -0.0005798  -0.0001186   0.0006418
   31   0.0992797   0.0395963   0.0894442   0.0094794   0.0059740   0.0164238
   32   0.0395963   0.0845742   0.0713336  -0.0001419   0.0028686  -0.0008536
   33   0.0894442   0.0713336   0.2249262  -0.0099439  -0.0071018  -0.0205583
   34   0.0094794  -0.0001419  -0.0099439   0.1519188   0.0165850  -0.1221547
   35   0.0059740   0.0028686  -0.0071018   0.0165850   0.0602570  -0.0194820
   36   0.0164238  -0.0008536  -0.0205583  -0.1221547  -0.0194820   0.2044777
   37   0.0032045   0.0028054   0.0004688  -0.0004099   0.0001533  -0.0013322
   38  -0.0009037  -0.0021348   0.0004738  -0.0003705   0.0002456   0.0001933
   39   0.0032430   0.0030341   0.0000291   0.0006116   0.0009562  -0.0008152
           37          38          39
    1  -0.0317933  -0.0105684   0.0123415
    2   0.0027051   0.0051224  -0.0155348
    3  -0.0085548  -0.0062860   0.0116875
    4  -0.1244789   0.0664909  -0.0729798
    5   0.0134673  -0.0671172   0.0391648
    6  -0.0563062   0.0631826  -0.1043398
    7   0.0233066  -0.0064445   0.0148709
    8  -0.0033858  -0.0152149  -0.0100977
    9   0.0223948  -0.0115612   0.0191504
   10   0.0067181  -0.0085006   0.0109709
   11  -0.0016066  -0.0069912   0.0002668
   12   0.0084303  -0.0097194   0.0137504
   13  -0.0040113   0.0028757   0.0066025
   14   0.0311683  -0.0216782   0.0292041
   15   0.0218455   0.0052787  -0.0047386
   16  -0.0006692  -0.0016680  -0.0007297
   17   0.0006840  -0.0005507   0.0008797
   18   0.0005253  -0.0000666   0.0005966
   19   0.0003360  -0.0011408   0.0073372
   20  -0.0015966  -0.0004085   0.0017178
   21   0.0006522   0.0005101  -0.0026446
   22   0.0023994  -0.0006945   0.0018858
   23   0.0021576   0.0002729   0.0005892
   24  -0.0022093   0.0013828  -0.0016098
   25   0.0007812  -0.0001286   0.0010176
   26   0.0003718  -0.0002185  -0.0000320
   27   0.0005038  -0.0001293  -0.0001053
   28  -0.0009918   0.0004307  -0.0012537
   29  -0.0075460   0.0013409  -0.0064098
   30  -0.0025001   0.0004794  -0.0023644
   31   0.0032045  -0.0009037   0.0032430
   32   0.0028054  -0.0021348   0.0030341
   33   0.0004688   0.0004738   0.0000291
   34  -0.0004099  -0.0003705   0.0006116
   35   0.0001533   0.0002456   0.0009562
   36  -0.0013322   0.0001933  -0.0008152
   37   0.1256085  -0.0393778   0.0160820
   38  -0.0393778   0.1073322  -0.0437383
   39   0.0160820  -0.0437383   0.0714036
 Gradient time:  CPU 4645.37 s  wall 1315.14 s
 **********************************************************************
 **                                                                  **
 **                       VIBRATIONAL ANALYSIS                       **
 **                       --------------------                       **
 **                                                                  **
 **        VIBRATIONAL FREQUENCIES (CM**-1) AND NORMAL MODES         **
 **     FORCE CONSTANTS (mDYN/ANGSTROM) AND REDUCED MASSES (AMU)     **
 **                  INFRARED INTENSITIES (KM/MOL)                   **
 **                                                                  **
 **********************************************************************
 

 Mode:                 1                      2                      3
 Frequency:      -589.62                 185.44                 197.14
 Force Cnst:      0.7211                 0.0470                 0.0703
 Red. Mass:       3.5204                 2.3204                 3.0722
 IR Active:          YES                    YES                    YES
 IR Intens:       72.461                  1.875                 12.414
 Raman Active:       YES                    YES                    YES
               X      Y      Z        X      Y      Z        X      Y      Z
 C          0.048  0.041  0.012    0.112  0.053  0.174   -0.096  0.210 -0.033
 O          0.131  0.121  0.175   -0.001 -0.002 -0.121    0.058 -0.181  0.015
 C         -0.145  0.056 -0.171   -0.023 -0.038 -0.109   -0.113 -0.130  0.033
 C         -0.170 -0.092 -0.078   -0.055  0.010  0.151   -0.026  0.092  0.022
 O          0.073 -0.160 -0.005   -0.043 -0.029 -0.090    0.173  0.005 -0.037
 H          0.168  0.052 -0.094   -0.033  0.076  0.221   -0.412  0.308 -0.054
 H          0.031  0.011 -0.018    0.083  0.101  0.379    0.142  0.471 -0.055
 H         -0.043 -0.042  0.011    0.386  0.023  0.154   -0.170  0.180 -0.030
 H         -0.191 -0.092 -0.205   -0.189 -0.040 -0.251   -0.115 -0.274  0.030
 H          0.023  0.507  0.019    0.152 -0.029 -0.162   -0.183 -0.133  0.055
 H         -0.278  0.046 -0.065   -0.280 -0.059  0.301   -0.098  0.126  0.045
 H         -0.080 -0.022 -0.007    0.137  0.115  0.323   -0.040  0.234  0.034
 H          0.304  0.101  0.472    0.053  0.015 -0.195    0.009 -0.167  0.072
 TransDip  -0.219  0.132 -0.095    0.019  0.003  0.039   -0.112  0.006  0.008

 Mode:                 4                      5                      6
 Frequency:       220.37                 281.99                 415.40
 Force Cnst:      0.0735                 0.0520                 0.5202
 Red. Mass:       2.5687                 1.1103                 5.1167
 IR Active:          YES                    YES                    YES
 IR Intens:        5.439                  1.277                131.970
 Raman Active:       YES                    YES                    YES
               X      Y      Z        X      Y      Z        X      Y      Z
 C         -0.146 -0.076 -0.058    0.028  0.041  0.024    0.013 -0.006 -0.007
 O         -0.106  0.026  0.101    0.015  0.001 -0.029    0.099 -0.258  0.079
 C          0.091  0.015 -0.108   -0.028 -0.017  0.043    0.074  0.346  0.134
 C          0.058  0.047  0.155   -0.017 -0.009 -0.007   -0.033 -0.028  0.030
 O          0.122 -0.012 -0.091   -0.003 -0.016 -0.027   -0.149 -0.013 -0.248
 H          0.065 -0.163  0.014    0.272 -0.209  0.484   -0.181  0.038 -0.001
 H         -0.192 -0.219 -0.291   -0.066 -0.243 -0.434    0.130  0.121 -0.047
 H         -0.340  0.069 -0.036   -0.118  0.589  0.067   -0.105 -0.013  0.008
 H         -0.077  0.068 -0.250   -0.010 -0.070  0.058    0.040  0.378  0.112
 H          0.279 -0.002 -0.180   -0.056  0.016  0.072    0.095  0.297  0.093
 H         -0.192 -0.010  0.317    0.006 -0.028 -0.011   -0.014 -0.341  0.160
 H          0.266  0.178  0.343   -0.043  0.017 -0.024    0.017  0.074  0.094
 H         -0.082  0.015  0.064    0.016  0.000 -0.029    0.172  0.026  0.397
 TransDip  -0.071  0.005 -0.021    0.014  0.009  0.032    0.230  0.196  0.210

 Mode:                 7                      8                      9
 Frequency:       430.19                 758.22                 816.80
 Force Cnst:      0.6855                 0.3810                 0.4251
 Red. Mass:       6.2872                 1.1248                 1.0815
 IR Active:          YES                    YES                    YES
 IR Intens:       56.035                  1.247                  5.810
 Raman Active:       YES                    YES                    YES
               X      Y      Z        X      Y      Z        X      Y      Z
 C         -0.073 -0.023  0.021    0.022  0.011 -0.008   -0.019 -0.006  0.004
 O         -0.129 -0.075 -0.254    0.003  0.023  0.009   -0.004 -0.011 -0.025
 C          0.014  0.368  0.061   -0.041  0.010  0.009    0.025  0.005 -0.038
 C         -0.108 -0.098  0.017   -0.030  0.004 -0.012    0.018  0.004 -0.046
 O          0.288 -0.151  0.193    0.038 -0.056 -0.004   -0.014 -0.002  0.019
 H         -0.164 -0.044  0.145    0.020  0.011 -0.008   -0.014 -0.010  0.013
 H         -0.086 -0.010  0.112    0.022  0.009 -0.011   -0.030 -0.012  0.021
 H          0.162  0.057  0.004    0.022  0.024 -0.009    0.011  0.001  0.001
 H         -0.163  0.082 -0.083    0.181  0.723  0.215    0.428 -0.158  0.305
 H          0.099  0.484  0.082   -0.202 -0.516 -0.219   -0.387  0.226  0.221
 H         -0.023  0.152 -0.109   -0.147 -0.011  0.050   -0.416  0.112  0.147
 H         -0.175 -0.045 -0.049    0.042  0.009  0.059    0.396 -0.030  0.269
 H         -0.195 -0.035 -0.320   -0.006 -0.022 -0.045    0.013  0.034  0.052
 TransDip  -0.173  0.151 -0.068   -0.032  0.014 -0.006    0.007  0.063  0.044

 Mode:                10                     11                     12
 Frequency:       957.29                1040.41                1047.20
 Force Cnst:      1.2032                 1.9008                 1.1031
 Red. Mass:       2.2285                 2.9804                 1.7073
 IR Active:          YES                    YES                    YES
 IR Intens:       48.251                 57.421                259.133
 Raman Active:       YES                    YES                    YES
               X      Y      Z        X      Y      Z        X      Y      Z
 C         -0.033 -0.008  0.006    0.259  0.059 -0.092    0.061  0.057 -0.060
 O          0.012 -0.013 -0.034   -0.188 -0.045  0.145   -0.077 -0.030 -0.004
 C          0.124 -0.119  0.045    0.089  0.026  0.009   -0.005  0.050 -0.006
 C         -0.091  0.204 -0.062   -0.100  0.009 -0.042    0.086  0.114 -0.009
 O         -0.042 -0.120  0.023   -0.007 -0.018  0.005   -0.026 -0.115  0.033
 H         -0.015 -0.021  0.028    0.084  0.094 -0.108    0.133 -0.014  0.044
 H         -0.059 -0.025  0.044    0.357  0.135 -0.198   -0.174 -0.109  0.143
 H          0.035 -0.002  0.000    0.049  0.068 -0.065    0.224 -0.008 -0.064
 H          0.184  0.350  0.088    0.047 -0.248 -0.037   -0.116 -0.315 -0.101
 H          0.613  0.359  0.160    0.057 -0.017 -0.005   -0.253 -0.306 -0.123
 H         -0.143  0.204 -0.051   -0.248  0.164 -0.021    0.126 -0.112  0.042
 H         -0.160  0.278 -0.083   -0.021  0.071  0.035    0.019  0.125 -0.043
 H          0.016  0.038  0.128   -0.187 -0.406 -0.505   -0.021  0.404  0.548
 TransDip   0.107  0.178  0.079    0.115 -0.004 -0.214    0.361  0.308  0.201

 Mode:                13                     14                     15
 Frequency:      1100.89                1143.18                1161.16
 Force Cnst:      1.3081                 1.4816                 1.1920
 Red. Mass:       1.8320                 1.9241                 1.5005
 IR Active:          YES                    YES                    YES
 IR Intens:       28.253                 13.177                  5.811
 Raman Active:       YES                    YES                    YES
               X      Y      Z        X      Y      Z        X      Y      Z
 C          0.061  0.062 -0.079    0.049 -0.012 -0.001   -0.012  0.011  0.006
 O         -0.089 -0.057  0.000   -0.051 -0.019  0.011    0.013 -0.002 -0.002
 C         -0.045 -0.090  0.012   -0.143 -0.011 -0.089    0.084  0.010 -0.050
 C         -0.021 -0.110  0.021    0.152  0.083  0.095   -0.098  0.024  0.138
 O          0.056  0.115 -0.018   -0.026 -0.078 -0.003    0.010 -0.013 -0.060
 H          0.156 -0.028  0.060   -0.058  0.036 -0.052    0.066  0.003 -0.027
 H         -0.183 -0.104  0.170    0.189  0.093 -0.130   -0.067 -0.042  0.024
 H          0.340  0.026 -0.093   -0.067  0.044  0.007   -0.011 -0.036  0.002
 H          0.050  0.383  0.101    0.095  0.361  0.125    0.332 -0.179  0.156
 H          0.278  0.305  0.126   -0.145  0.551  0.209   -0.235 -0.141 -0.018
 H         -0.032  0.048 -0.027    0.466  0.028 -0.057    0.193  0.486 -0.218
 H          0.039 -0.229  0.039    0.013 -0.178 -0.061   -0.348 -0.476 -0.129
 H         -0.067  0.311  0.449    0.054 -0.112 -0.223    0.004  0.089  0.078
 TransDip   0.111  0.055  0.116   -0.019  0.021 -0.113    0.016  0.046  0.060

 Mode:                16                     17                     18
 Frequency:      1191.25                1219.92                1255.83
 Force Cnst:      1.0672                 1.0704                 1.1576
 Red. Mass:       1.2764                 1.2207                 1.2458
 IR Active:          YES                    YES                    YES
 IR Intens:        0.259                118.579                  4.674
 Raman Active:       YES                    YES                    YES
               X      Y      Z        X      Y      Z        X      Y      Z
 C          0.020  0.094  0.096    0.065 -0.067  0.051   -0.023  0.021 -0.010
 O         -0.016 -0.046 -0.043   -0.046  0.019 -0.045    0.023 -0.004  0.015
 C         -0.006 -0.003  0.003   -0.000 -0.017  0.033   -0.040  0.020  0.082
 C          0.003 -0.005 -0.009    0.003 -0.012 -0.015    0.075  0.014 -0.033
 O          0.002  0.004  0.006    0.008  0.004 -0.002   -0.028 -0.036 -0.027
 H          0.586  0.149 -0.429   -0.302  0.079 -0.069    0.084 -0.021  0.023
 H         -0.160 -0.207 -0.166    0.402  0.199 -0.255   -0.124 -0.063  0.066
 H         -0.437 -0.352  0.098   -0.426  0.053  0.092    0.093 -0.039 -0.019
 H         -0.007  0.040  0.002   -0.090  0.001 -0.042   -0.352  0.036 -0.173
 H          0.023  0.015  0.004    0.092 -0.075 -0.028    0.132 -0.063 -0.026
 H         -0.010 -0.043  0.014   -0.102  0.174 -0.040   -0.194  0.646 -0.153
 H          0.016  0.035  0.007    0.081 -0.155  0.032    0.320 -0.371  0.117
 H          0.010  0.009 -0.028    0.140  0.493  0.245   -0.015 -0.128 -0.105
 TransDip  -0.014 -0.006 -0.006    0.239  0.180  0.179   -0.020  0.021 -0.063

 Mode:                19                     20                     21
 Frequency:      1352.92                1481.05                1483.66
 Force Cnst:      1.3541                 1.4758                 1.4819
 Red. Mass:       1.2556                 1.1419                 1.1426
 IR Active:          YES                    YES                    YES
 IR Intens:        8.800                  7.921                  6.520
 Raman Active:       YES                    YES                    YES
               X      Y      Z        X      Y      Z        X      Y      Z
 C          0.002 -0.001 -0.000   -0.087 -0.028  0.034    0.041  0.014 -0.026
 O         -0.002 -0.004 -0.002   -0.011 -0.007  0.004    0.005  0.001 -0.001
 C          0.013 -0.000 -0.019   -0.043  0.022  0.001   -0.088  0.036 -0.010
 C          0.075 -0.114  0.041   -0.002 -0.007 -0.002   -0.005 -0.019  0.002
 O         -0.034 -0.003 -0.003   -0.005 -0.005 -0.003   -0.006 -0.007  0.002
 H          0.003  0.003 -0.010    0.422 -0.051 -0.217   -0.161 -0.007  0.152
 H          0.009  0.008  0.002    0.360  0.329 -0.264   -0.169 -0.119  0.209
 H          0.002  0.016 -0.001    0.465  0.105 -0.005   -0.289 -0.053 -0.000
 H          0.006  0.100 -0.017    0.164 -0.156  0.173    0.330 -0.245  0.336
 H         -0.151  0.030  0.042    0.254 -0.089 -0.153    0.473 -0.109 -0.267
 H         -0.108  0.525 -0.131    0.100  0.047 -0.071    0.221  0.098 -0.152
 H         -0.252  0.744 -0.116    0.097  0.075  0.082    0.181  0.171  0.165
 H         -0.009  0.066  0.042   -0.032  0.079  0.041    0.057 -0.022 -0.049
 TransDip  -0.077  0.055 -0.005   -0.073 -0.033 -0.041    0.074  0.034  0.002

 Mode:                22                     23                     24
 Frequency:      1503.58                1512.85                1515.85
 Force Cnst:      1.3974                 1.5311                 1.4545
 Red. Mass:       1.0491                 1.1355                 1.0744
 IR Active:          YES                    YES                    YES
 IR Intens:        1.527                  1.775                  7.996
 Raman Active:       YES                    YES                    YES
               X      Y      Z        X      Y      Z        X      Y      Z
 C          0.001 -0.051 -0.032    0.011 -0.018  0.020   -0.023  0.029 -0.043
 O         -0.000 -0.005 -0.007    0.004  0.000 -0.001   -0.006 -0.000 -0.003
 C          0.003 -0.000  0.001    0.044 -0.021  0.005    0.029 -0.015  0.001
 C          0.006  0.004 -0.000   -0.090 -0.007 -0.009   -0.041 -0.003 -0.004
 O          0.001 -0.001 -0.001   -0.001 -0.001 -0.001    0.000 -0.000  0.002
 H          0.358 -0.059 -0.175   -0.109  0.129 -0.258    0.277 -0.279  0.517
 H          0.057  0.270  0.606   -0.092 -0.133 -0.022    0.223  0.326  0.100
 H         -0.345  0.504  0.037    0.075  0.240  0.021   -0.189 -0.444 -0.037
 H         -0.027  0.013 -0.023   -0.125  0.101 -0.137   -0.079  0.082 -0.090
 H         -0.024  0.011  0.015   -0.212  0.009  0.108   -0.147  0.018  0.077
 H         -0.042 -0.008  0.029    0.498  0.040 -0.316    0.205  0.004 -0.128
 H         -0.028 -0.035 -0.031    0.391  0.201  0.389    0.153  0.083  0.157
 H         -0.066 -0.052  0.030   -0.065 -0.013  0.060    0.065  0.068 -0.038
 TransDip  -0.019  0.022  0.027   -0.039  0.003 -0.016    0.061 -0.012  0.065

 Mode:                25                     26                     27
 Frequency:      1590.59                2243.60                2905.74
 Force Cnst:      1.6027                 3.2867                 5.2486
 Red. Mass:       1.0752                 1.1082                 1.0551
 IR Active:          YES                    YES                    YES
 IR Intens:       68.560                468.500                 68.097
 Raman Active:       YES                    YES                    YES
               X      Y      Z        X      Y      Z        X      Y      Z
 C         -0.033  0.013 -0.022    0.001 -0.005  0.002   -0.000 -0.000  0.000
 O         -0.019 -0.034  0.034   -0.059  0.026 -0.044   -0.001 -0.000 -0.001
 C          0.015 -0.006  0.003    0.012  0.002  0.012    0.002 -0.002  0.001
 C         -0.010 -0.004 -0.005    0.006 -0.001  0.009   -0.054 -0.023 -0.028
 O         -0.003  0.001  0.016    0.001  0.017  0.004   -0.002 -0.002  0.000
 H          0.036  0.017 -0.072    0.004 -0.019 -0.014    0.001  0.008  0.004
 H         -0.136 -0.040  0.084    0.025  0.038 -0.032    0.004 -0.004  0.001
 H          0.091  0.120 -0.029    0.021  0.006  0.026   -0.000  0.000 -0.007
 H         -0.011  0.007 -0.021   -0.002  0.000  0.004    0.002  0.003 -0.001
 H         -0.019 -0.019  0.007   -0.007 -0.057 -0.004   -0.005 -0.012 -0.001
 H         -0.005 -0.026 -0.005    0.012  0.027 -0.023    0.366  0.299  0.728
 H         -0.007  0.009 -0.001   -0.013  0.003  0.010    0.291  0.045 -0.394
 H          0.735  0.419 -0.468    0.650 -0.626  0.412    0.015 -0.005  0.009
 TransDip   0.243  0.105 -0.018    0.613  0.085  0.313   -0.227 -0.122 -0.059

 Mode:                28                     29                     30
 Frequency:      2944.58                2959.01                3019.67
 Force Cnst:      5.6417                 5.3221                 5.9338
 Red. Mass:       1.1044                 1.0317                 1.1045
 IR Active:          YES                    YES                    YES
 IR Intens:       42.269                 54.160                 30.542
 Raman Active:       YES                    YES                    YES
               X      Y      Z        X      Y      Z        X      Y      Z
 C          0.000  0.000  0.000   -0.031 -0.029  0.018   -0.006 -0.059 -0.072
 O          0.000  0.000  0.000   -0.004 -0.000  0.000    0.000  0.000  0.001
 C         -0.002 -0.001  0.002    0.001  0.001  0.001   -0.000 -0.000 -0.000
 C          0.029 -0.008 -0.089    0.001  0.001  0.000   -0.000 -0.000 -0.000
 O          0.000  0.001  0.001   -0.000  0.000 -0.000    0.000 -0.000  0.000
 H         -0.001 -0.003 -0.001    0.157  0.609  0.254    0.161  0.639  0.252
 H         -0.003  0.002 -0.001    0.298 -0.278  0.107   -0.142  0.113 -0.068
 H         -0.000 -0.000 -0.000   -0.046  0.026 -0.597    0.056 -0.051  0.672
 H          0.011  0.001 -0.019   -0.001 -0.002 -0.002    0.003  0.002 -0.001
 H         -0.004  0.013 -0.022    0.001 -0.006  0.004   -0.000  0.002 -0.001
 H          0.222  0.167  0.390   -0.003 -0.003 -0.008    0.000  0.000  0.001
 H         -0.550 -0.090  0.671   -0.005 -0.001  0.008   -0.002  0.000  0.001
 H         -0.001  0.004 -0.003    0.022 -0.015  0.017   -0.004  0.004 -0.005
 TransDip   0.104  0.002 -0.180   -0.203 -0.111  0.046    0.005 -0.111 -0.137

 Mode:                31                     32                     33
 Frequency:      3051.53                3135.46                3249.97
 Force Cnst:      6.0578                 6.0986                 6.9804
 Red. Mass:       1.1042                 1.0529                 1.1217
 IR Active:          YES                    YES                    YES
 IR Intens:       33.391                  1.600                  1.182
 Raman Active:       YES                    YES                    YES
               X      Y      Z        X      Y      Z        X      Y      Z
 C         -0.051  0.062 -0.048    0.001 -0.000 -0.000    0.000 -0.000 -0.000
 O         -0.000 -0.001  0.000    0.000 -0.001  0.000    0.000 -0.001  0.000
 C         -0.000  0.000 -0.000   -0.056  0.030 -0.007    0.023  0.027 -0.095
 C          0.000  0.000 -0.000    0.003 -0.002  0.000    0.002 -0.000 -0.003
 O          0.000 -0.000  0.000    0.000 -0.001  0.000   -0.000  0.000  0.000
 H         -0.050 -0.135 -0.077   -0.001 -0.003 -0.001   -0.001 -0.000  0.001
 H          0.629 -0.584  0.226   -0.003  0.003 -0.001   -0.003  0.002 -0.001
 H          0.028 -0.007  0.419    0.000 -0.000  0.001   -0.001 -0.000  0.003
 H          0.000  0.001 -0.001    0.439  0.009 -0.532   -0.470 -0.012  0.546
 H         -0.000 -0.003  0.003    0.192 -0.331  0.612    0.192 -0.312  0.579
 H          0.000  0.000  0.001   -0.001  0.003  0.000    0.008  0.003  0.014
 H         -0.002 -0.000  0.002   -0.001  0.000  0.001   -0.020  0.000  0.021
 H          0.010  0.005  0.000   -0.003  0.001 -0.002   -0.005  0.004 -0.007
 TransDip  -0.118  0.108 -0.093   -0.034  0.019 -0.010   -0.026  0.017 -0.016

 STANDARD THERMODYNAMIC QUANTITIES AT   298.15 K  AND     1.00 ATM

   This Molecule has  1 Imaginary Frequencies
   Zero point vibrational energy:       67.723 kcal/mol

   Atom    1 Element C  Has Mass   12.00000
   Atom    2 Element O  Has Mass   15.99491
   Atom    3 Element C  Has Mass   12.00000
   Atom    4 Element C  Has Mass   12.00000
   Atom    5 Element O  Has Mass   15.99491
   Atom    6 Element H  Has Mass    1.00783
   Atom    7 Element H  Has Mass    1.00783
   Atom    8 Element H  Has Mass    1.00783
   Atom    9 Element H  Has Mass    1.00783
   Atom   10 Element H  Has Mass    1.00783
   Atom   11 Element H  Has Mass    1.00783
   Atom   12 Element H  Has Mass    1.00783
   Atom   13 Element H  Has Mass    1.00783
   Molecular Mass:    76.052460 amu
   Principal axes and moments of inertia in amu*Bohr^2:
                             1           2           3
    Eigenvalues --      184.85374   626.72143   703.43741
          X               0.86367    -0.28862    -0.41325
          Y               0.34589     0.93571     0.06938
          Z               0.36665    -0.20286     0.90797
   Rotational Symmetry Number is   1
   The Molecule is an Asymmetric Top
   Translational Enthalpy:        0.889 kcal/mol
   Rotational Enthalpy:           0.889 kcal/mol
   Vibrational Enthalpy:         69.679 kcal/mol
   gas constant (RT):             0.592 kcal/mol
   Translational Entropy:        38.902  cal/mol.K
   Rotational Entropy:           25.902  cal/mol.K
   Vibrational Entropy:          10.748  cal/mol.K

   Total Enthalpy:               72.049 kcal/mol
   Total Entropy:                75.552  cal/mol.K
Archival summary:
1\1\nid00505\FREQ\ProcedureUnspecified\BasisUnspecified\238\cgrambow\TueFeb1223:53:052019TueFeb1223:53:052019\0\\#,FREQ,ProcedureUnspecified,BasisUnspecified,\\0,1\O\H,1,1.04997\C,1,1.42324,2,107.681\H,3,1.09892,1,108.836,2,-154.552,0\H,3,1.10238,1,111.838,2,-33.7007,0\H,3,1.10307,1,110.043,2,86.9776,0\O,2,1.48529,1,150.676,3,93.5312,0\C,7,1.39674,2,103.413,1,43.5369,0\H,8,1.10787,7,115.482,2,73.2878,0\H,8,1.10913,7,113.957,2,-160.588,0\C,8,1.47525,7,92.9546,2,-43.6575,0\H,11,1.08669,8,124.903,7,120.504,0\H,11,1.08726,8,117.053,7,-66.4983,0\\\@

 Total job time:  1355.20s(wall), 5145.99s(cpu) 
 Tue Feb 12 23:53:05 2019

        *************************************************************
        *                                                           *
        *  Thank you very much for using Q-Chem.  Have a nice day.  *
        *                                                           *
        *************************************************************



Running Job 2 of 3 ts_optfreq0327.in
qchem ts_optfreq0327.in_18670.1 /tmp/qchem18670/ 1
/global/common/cori/software/qchem/5.1/exe/qcprog.exe ts_optfreq0327.in_18670.1 /tmp/qchem18670/
Check license passed

                  Welcome to Q-Chem
     A Quantum Leap Into The Future Of Chemistry


 Q-Chem 5.1, Q-Chem, Inc., Pleasanton, CA (2018)

 Yihan Shao,  Zhengting Gan,  E. Epifanovsky,  A. T. B. Gilbert,  M. Wormit,  
 J. Kussmann,  A. W. Lange,  A. Behn,  Jia Deng,  Xintian Feng,  D. Ghosh,  
 M. Goldey,  P. R. Horn,  L. D. Jacobson,  I. Kaliman,  T. Kus,  A. Landau,  
 Jie Liu,  E. I. Proynov,  R. M. Richard,  R. P. Steele,  E. J. Sundstrom,  
 H. L. Woodcock III,  P. M. Zimmerman,  D. Zuev,  B. Albrecht,  E. Alguire,  
 S. A. Baeppler,  D. Barton,  Z. Benda,  Y. A. Bernard,  E. J. Berquist,  
 K. B. Bravaya,  H. Burton,  D. Casanova,  Chun-Min Chang,  Yunqing Chen,  
 A. Chien,  K. D. Closser,  M. P. Coons,  S. Coriani,  S. Dasgupta,  
 A. L. Dempwolff,  M. Diedenhofen,  Hainam Do,  R. G. Edgar,  Po-Tung Fang,  
 S. Faraji,  S. Fatehi,  Qingguo Feng,  K. D. Fenk,  J. Fosso-Tande,  
 Qinghui Ge,  A. Ghysels,  G. Gidofalvi,  J. Gomes,  J. Gonthier,  A. Gunina,  
 D. Hait,  M. W. D. Hanson-Heine,  P. H. P. Harbach,  A. W. Hauser,  
 J. E. Herr,  E. G. Hohenstein,  Z. C. Holden,  Kerwin Hui,  B. C. Huynh,  
 T.-C. Jagau,  Hyunjun Ji,  B. Kaduk,  K. Khistyaev,  Jaehoon Kim,  
 P. Klunzinger,  K. Koh,  D. Kosenkov,  L. Koulias,  T. Kowalczyk,  
 C. M. Krauter,  A. Kunitsa,  Ka Un Lao,  A. Laurent,  K. V. Lawler,  
 Joonho Lee,  D. Lefrancois,  S. Lehtola,  D. S. Levine,  Yi-Pei Li,  
 You-Sheng Lin,  Fenglai Liu,  E. Livshits,  A. Luenser,  P. Manohar,  
 E. Mansoor,  S. F. Manzer,  Shan-Ping Mao,  Yuezhi Mao,  N. Mardirossian,  
 A. V. Marenich,  T. Markovich,  L. A. Martinez-Martinez,  S. A. Maurer,  
 N. J. Mayhall,  S. C. McKenzie,  J.-M. Mewes,  A. F. Morrison,  
 J. W. Mullinax,  K. Nanda,  T. S. Nguyen-Beck,  R. Olivares-Amaya,  
 J. A. Parkhill,  T. M. Perrine,  F. Plasser,  P. Pokhilko,  S. Prager,  
 A. Prociuk,  E. Ramos,  D. R. Rehn,  F. Rob,  M. Schneider,  N. Sergueev,  
 S. M. Sharada,  S. Sharma,  D. W. Small,  T. Stauch,  T. Stein,  
 Yu-Chuan Su,  A. J. W. Thom,  A. Tkatchenko,  T. Tsuchimochi,  N. M. Tubman,  
 L. Vogt,  M. L. Vidal,  O. Vydrov,  M. A. Watson,  J. Wenzel,  
 M. de Wergifosse,  T. A. Wesolowski,  A. White,  J. Witte,  A. Yamada,  
 Jun Yang,  K. Yao,  S. Yeganeh,  S. R. Yost,  Zhi-Qiang You,  A. Zech,  
 Igor Ying Zhang,  Xing Zhang,  Yan Zhao,  Ying Zhu,  B. R. Brooks,  
 G. K. L. Chan,  C. J. Cramer,  M. S. Gordon,  W. J. Hehre,  A. Klamt,  
 M. W. Schmidt,  C. D. Sherrill,  D. G. Truhlar,  A. Aspuru-Guzik,  R. Baer,  
 A. T. Bell,  N. A. Besley,  Jeng-Da Chai,  R. A. DiStasio Jr.,  A. Dreuw,  
 B. D. Dunietz,  T. R. Furlani,  Chao-Ping Hsu,  Yousung Jung,  Jing Kong,  
 D. S. Lambrecht,  WanZhen Liang,  C. Ochsenfeld,  V. A. Rassolov,  
 L. V. Slipchenko,  J. E. Subotnik,  T. Van Voorhis,  J. M. Herbert,  
 A. I. Krylov,  P. M. W. Gill,  M. Head-Gordon

 Contributors to earlier versions of Q-Chem not listed above: 
 R. D. Adamson,  B. Austin,  J. Baker,  G. J. O. Beran,  K. Brandhorst,  
 S. T. Brown,  E. F. C. Byrd,  A. K. Chakraborty,  C.-L. Cheng,  
 Siu Hung Chien,  D. M. Chipman,  D. L. Crittenden,  H. Dachsel,  
 R. J. Doerksen,  A. D. Dutoi,  L. Fusti-Molnar,  W. A. Goddard III,  
 A. Golubeva-Zadorozhnaya,  S. R. Gwaltney,  G. Hawkins,  A. Heyden,  
 S. Hirata,  G. Kedziora,  F. J. Keil,  C. Kelley,  Jihan Kim,  R. A. King,  
 R. Z. Khaliullin,  P. P. Korambath,  W. Kurlancheek,  A. M. Lee,  M. S. Lee,  
 S. V. Levchenko,  Ching Yeh Lin,  D. Liotard,  R. C. Lochan,  I. Lotan,  
 P. E. Maslen,  N. Nair,  D. P. O'Neill,  D. Neuhauser,  E. Neuscamman,  
 C. M. Oana,  R. Olson,  B. Peters,  R. Peverati,  P. A. Pieniazek,  
 Y. M. Rhee,  J. Ritchie,  M. A. Rohrdanz,  E. Rosta,  N. J. Russ,  
 H. F. Schaefer III,  N. E. Schultz,  N. Shenvi,  A. C. Simmonett,  A. Sodt,  
 D. Stuck,  K. S. Thanthiriwatte,  V. Vanovschi,  Tao Wang,  A. Warshel,  
 C. F. Williams,  Q. Wu,  X. Xu,  W. Zhang

 Please cite Q-Chem as follows:
 Y. Shao et al., Mol. Phys. 113, 184-215 (2015)
 DOI: 10.1080/00268976.2014.952696

 Q-Chem 5.1.0 for Intel X86 EM64T Linux

 Parts of Q-Chem use Armadillo 8.300.2 (Tropical Shenanigans).
 http://arma.sourceforge.net/

 Q-Chem begins on Tue Feb 12 23:53:05 2019  

Host: cori07
0

     Scratch files written to /tmp/qchem18670//
 Jun2518 |scratch|qcdevops|jenkins|workspace|build_RNUM -1
Processing $rem in /global/common/cori/software/qchem/5.1/config/preferences.
 MEM_TOTAL  96000 
The previous job contains 0 fragments, simply inherited here

Checking the input file for inconsistencies... 	...done.

--------------------------------------------------------------
User input:
--------------------------------------------------------------

$molecule
read
$end

$rem
JOBTYPE                   TS
METHOD                    wB97X-D3
BASIS                     def2-TZVP
UNRESTRICTED              TRUE
SCF_GUESS                 READ
GEOM_OPT_HESSIAN          READ
SCF_ALGORITHM             DIIS
MAX_SCF_CYCLES            100
SCF_CONVERGENCE           8
SYM_IGNORE                TRUE
SYMMETRY                  FALSE
GEOM_OPT_MAX_CYCLES       100
GEOM_OPT_TOL_GRADIENT     100
GEOM_OPT_TOL_DISPLACEMENT 400
GEOM_OPT_TOL_ENERGY       33
WAVEFUNCTION_ANALYSIS     FALSE
$end

--------------------------------------------------------------
 Adding empirical dispersion correction 
 ----------------------------------------------------------------
 Doing -D3(0) with
 s6  =   1.00000
 s8  =   1.00000
 rs6 =   1.28100
 rs8 =   1.09400
 -D3 energy without 3body term =     -0.0029313972 hartrees
 ----------------------------------------------------------------
             Standard Nuclear Orientation (Angstroms)
    I     Atom           X                Y                Z
 ----------------------------------------------------------------
    1      C       1.7111978834     0.9235326995     0.3359952851
    2      O       0.4853509855     0.4907393430     0.9153037442
    3      C      -0.4288364041    -1.1257844457    -0.3527084620
    4      C      -1.7697616201    -0.5660321947    -0.6075883954
    5      O      -1.2757815407     0.7291882049    -0.7786352566
    6      H       1.9860105449     1.9163417304     0.7304251369
    7      H       2.5034690089     0.2129828182     0.6099645091
    8      H       1.6449355491     0.9894673908    -0.7624102499
    9      H       0.2766344670    -1.1157278649    -1.1799631561
   10      H      -0.1325407614    -1.6403419934     0.5574217210
   11      H      -2.2523003147    -0.9872300882    -1.5130781691
   12      H      -2.4606152021    -0.7036231265     0.2474893107
   13      H      -0.2970915958     0.8737865267     0.3292249820
 ----------------------------------------------------------------
 Nuclear Repulsion Energy =   187.8300012878 hartrees
 There are       21 alpha and       21 beta electrons
 Requested basis set is def2-TZVP
 There are 87 shells and 203 basis functions

 Total QAlloc Memory Limit  96000 MB
 Mega-Array Size       188 MB
 MEM_STATIC part       192 MB
 A cutoff of  1.0D-11 yielded   3589 shell pairs
 There are     20011 function pairs (     25403 Cartesian)
 
 -------------------------------------------------------
 OpenMP Integral Computing Module                       
 Release: version 1.0, May 2013, Q-Chem Inc. Pittsburgh 
 -------------------------------------------------------
 Integral Job Info:
 Integral job number is                      11
 Integral operator is                         1
 short-range coefficients              19572800
 long-range coefficients              100000000
 Omega coefficients                         250
 if combine SR and LR in K                    1
 Integral screening is                        0
 Integral computing path is                   2
 max size of driver memory is            800000
 size of driver memory is                776718
 size of scratch memory is              4473992
 max col of scratch BK array              10000
 max len of scratch array in speh3          662
 max len of scratch index in speh4           32
 max int batch size is                      520
 min int batch size is                       52
 fixed nKL is                                52
 max L of basis functions is                  3
 order of int derivative is                   0
 number of shells is                         87
 number of basis is                         228
 number of cartesian basis is               228
 number of contracted shell pairs          3589
 number of primitive shell pairs           8110
 maxK2 (contraction) of shell pair           36
 max number of K2 of shell pair               1
 max number of CS2 of shell pair            575
 max number of PS2 of shell pair           1026
 mem total for path MDJ                  565364
 -------------------------------------------------------
 Smallest overlap matrix eigenvalue = 3.81E-04

 Scale SEOQF with 1.000000e-01/1.000000e-01/1.000000e-01

 Standard Electronic Orientation quadrupole field applied
 Nucleus-field energy     =     0.0000000028 hartrees

 -----------------------------------------------------------------------
  General SCF calculation program by
  Eric Jon Sundstrom, Paul Horn, Yuezhi Mao, Dmitri Zuev, Alec White,
  David Stuck, Shaama M.S., Shane Yost, Joonho Lee, David Small,
  Daniel Levine, Susi Lehtola, Hugh Burton, Evgeny Epifanovsky
 -----------------------------------------------------------------------
 Exchange:     0.1957 Hartree-Fock + 1.0000 wB97X-D3 + LR-HF
 Correlation:  1.0000 wB97X-D3
 Using SG-2 standard quadrature grid
 Dispersion:   Grimme D3
 using 16 threads for integral computing
 -------------------------------------------------------
 OpenMP Integral computing Module                
 Release: version 1.0, May 2013, Q-Chem Inc. Pittsburgh 
 -------------------------------------------------------
 using 16 threads for integral computing
 -------------------------------------------------------
 OpenMP Integral computing Module                
 Release: version 1.0, May 2013, Q-Chem Inc. Pittsburgh 
 -------------------------------------------------------
 -------------------------------------------------------
 OpenMP BLAS3 based DFT computing Module                
 Release: version 1.0, May 2013, Q-Chem Inc. Pittsburgh 
 -------------------------------------------------------
 A unrestricted SCF calculation will be
 performed using DIIS
 SCF converges when DIIS error is below 1.0e-08
 ---------------------------------------
  Cycle       Energy         DIIS error
 ---------------------------------------
    1    -269.4602948114      5.88e-10  
    2    -269.4602948114      3.42e-10  Convergence criterion met
 ---------------------------------------
 SCF time:   CPU 61.92s  wall 4.00s 
<S^2> =          0.000000000
 SCF   energy in the final basis set =     -269.4602948114
 Total energy in the final basis set =     -269.4602948114
 No wavefunction analysis requested
 Calculating analytic gradient of the SCF energy
 Gradient of SCF Energy
            1           2           3           4           5           6
    1   0.0015977   0.0042785   0.0054148  -0.0027202   0.0004056   0.0012052
    2  -0.0005905  -0.0048924  -0.0086674  -0.0003400   0.0155322   0.0051552
    3  -0.0046386   0.0157825  -0.0002081   0.0013845  -0.0050677   0.0024045
            7           8           9          10          11          12
    1   0.0032795   0.0005671   0.0029089   0.0010059  -0.0033248  -0.0040007
    2  -0.0029047   0.0002795  -0.0004201  -0.0028820  -0.0026541  -0.0022663
    3   0.0014378  -0.0048039  -0.0025130   0.0031755  -0.0043043   0.0043804
           13
    1  -0.0106176
    2   0.0046505
    3  -0.0070295
 Max gradient component =       1.578E-02
 RMS gradient           =       5.239E-03
 Gradient time:  CPU 73.92 s  wall 5.32 s
 Geometry Optimization Parameters
   NAtoms,    NIC,     NZ,  NCons,   NDum,   NFix, NCnnct, MaxDiis
       13      70       0       0       0       0       0       0

 Cartesian Hessian read from HESS file


** GEOMETRY OPTIMIZATION IN DELOCALIZED INTERNAL COORDINATES **
   Searching for a Transition State

   Optimization Cycle:   1

                       Coordinates (Angstroms)
     ATOM                X               Y               Z
      1  C         1.7111978834    0.9235326995    0.3359952851
      2  O         0.4853509855    0.4907393430    0.9153037442
      3  C        -0.4288364041   -1.1257844457   -0.3527084620
      4  C        -1.7697616201   -0.5660321947   -0.6075883954
      5  O        -1.2757815407    0.7291882049   -0.7786352566
      6  H         1.9860105449    1.9163417304    0.7304251369
      7  H         2.5034690089    0.2129828182    0.6099645091
      8  H         1.6449355491    0.9894673908   -0.7624102499
      9  H         0.2766344670   -1.1157278649   -1.1799631561
     10  H        -0.1325407614   -1.6403419934    0.5574217210
     11  H        -2.2523003147   -0.9872300882   -1.5130781691
     12  H        -2.4606152021   -0.7036231265    0.2474893107
     13  H        -0.2970915958    0.8737865267    0.3292249820
   Point Group: c1    Number of degrees of freedom:    33


   Energy is   -269.460294811


 Attempting to Generate Delocalized Internal Coordinates

 Transforming Cartesian Hessian to Internal Coordinates
 Hessian Transformation does not Include Derivative of B-matrix

 33 Hessian modes will be used to form the next step
  Hessian Eigenvalues:
    -0.302296    0.006537    0.007384    0.012336    0.025063    0.027427
     0.045124    0.065518    0.084698    0.090389    0.091318    0.097241
     0.100657    0.105087    0.122108    0.132763    0.150814    0.171132
     0.188730    0.192893    0.213537    0.286723    0.301210    0.304858
     0.315898    0.319958    0.325389    0.336027    0.356610    0.360977
     0.363748    0.381135    1.031968

 Transition State Search - Taking P-RFO Step
 Searching for Lamda that Maximizes Along the Lowest mode
 Value Taken    Lamda =   0.00008050
 Searching for Lamda that Minimizes Along All other modes
 Value Taken    Lamda =  -0.00350499
 Step Taken.  Stepsize is  0.188598

                             Maximum     Tolerance    Cnvgd?
         Gradient           0.016717      0.000100      NO
         Displacement       0.098314      0.000400      NO
         Energy change     *********      0.000000      NO


 New Cartesian Coordinates Obtained by Inverse Iteration

 Displacement from previous Coordinates is:  0.255251
 Adding empirical dispersion correction 
 ----------------------------------------------------------------
 Doing -D3(0) with
 s6  =   1.00000
 s8  =   1.00000
 rs6 =   1.28100
 rs8 =   1.09400
 -D3 energy without 3body term =     -0.0028554565 hartrees
 ----------------------------------------------------------------
             Standard Nuclear Orientation (Angstroms)
    I     Atom           X                Y                Z
 ----------------------------------------------------------------
    1      C       1.7066891904     0.9106030862     0.3262696631
    2      O       0.4782036854     0.4710879282     0.8613499752
    3      C      -0.4252328841    -1.0809915958    -0.3229720604
    4      C      -1.7652041250    -0.5741234300    -0.6026293564
    5      O      -1.2923710205     0.7146262993    -0.7649486758
    6      H       1.9831093509     1.8781804959     0.7545503821
    7      H       2.4849039263     0.1879931169     0.5787171230
    8      H       1.6503627324     1.0165376000    -0.7624272509
    9      H       0.2735112785    -1.0766906527    -1.1485451002
   10      H      -0.1361471857    -1.6094328322     0.5739746065
   11      H      -2.2138136000    -1.0050548610    -1.5099442178
   12      H      -2.4660060157    -0.7112553673     0.2323373797
   13      H      -0.2873343329     0.8758192125     0.3157085319
 ----------------------------------------------------------------
 Nuclear Repulsion Energy =   190.2769968507 hartrees
 There are       21 alpha and       21 beta electrons
 Applying Cartesian multipole field
    Component          Value
    ---------          -----
     (2,0,0)        1.00000E-11
     (0,2,0)        2.00000E-11
     (0,0,2)       -3.00000E-11
 Nucleus-field energy     =     0.0000000028 hartrees
 Requested basis set is def2-TZVP
 There are 87 shells and 203 basis functions
 A cutoff of  1.0D-11 yielded   3596 shell pairs
 There are     20042 function pairs (     25439 Cartesian)
 Smallest overlap matrix eigenvalue = 3.40E-04

 -----------------------------------------------------------------------
  General SCF calculation program by
  Eric Jon Sundstrom, Paul Horn, Yuezhi Mao, Dmitri Zuev, Alec White,
  David Stuck, Shaama M.S., Shane Yost, Joonho Lee, David Small,
  Daniel Levine, Susi Lehtola, Hugh Burton, Evgeny Epifanovsky
 -----------------------------------------------------------------------
 Exchange:     0.1957 Hartree-Fock + 1.0000 wB97X-D3 + LR-HF
 Correlation:  1.0000 wB97X-D3
 Using SG-2 standard quadrature grid
 Dispersion:   Grimme D3
 using 16 threads for integral computing
 -------------------------------------------------------
 OpenMP Integral computing Module                
 Release: version 1.0, May 2013, Q-Chem Inc. Pittsburgh 
 -------------------------------------------------------
 using 16 threads for integral computing
 -------------------------------------------------------
 OpenMP Integral computing Module                
 Release: version 1.0, May 2013, Q-Chem Inc. Pittsburgh 
 -------------------------------------------------------
 -------------------------------------------------------
 OpenMP BLAS3 based DFT computing Module                
 Release: version 1.0, May 2013, Q-Chem Inc. Pittsburgh 
 -------------------------------------------------------
 A unrestricted SCF calculation will be
 performed using DIIS
 SCF converges when DIIS error is below 1.0e-08
 ---------------------------------------
  Cycle       Energy         DIIS error
 ---------------------------------------
    1    -269.4598888350      2.81e-04  
    2    -269.4618306688      9.13e-05  
    3    -269.4618722387      1.15e-04  
    4    -269.4620618339      1.57e-05  
    5    -269.4620694894      8.50e-06  
    6    -269.4620719240      3.61e-06  
    7    -269.4620724521      1.42e-06  
    8    -269.4620727124      5.91e-07  
    9    -269.4620727808      2.32e-07  
   10    -269.4620727913      1.11e-07  
   11    -269.4620727928      4.09e-08  
   12    -269.4620727930      1.29e-08  
   13    -269.4620727930      6.06e-09  Convergence criterion met
 ---------------------------------------
 SCF time:   CPU 416.04s  wall 30.00s 
<S^2> =          0.000000000
 SCF   energy in the final basis set =     -269.4620727930
 Total energy in the final basis set =     -269.4620727930
 No wavefunction analysis requested
 Calculating analytic gradient of the SCF energy
 Gradient of SCF Energy
            1           2           3           4           5           6
    1  -0.0003283  -0.0002587  -0.0010011   0.0004893   0.0007172  -0.0000274
    2  -0.0001595   0.0012369  -0.0005398   0.0005455  -0.0006120   0.0000394
    3   0.0000313  -0.0003684  -0.0005507   0.0001482  -0.0002268  -0.0001345
            7           8           9          10          11          12
    1  -0.0000227  -0.0000987   0.0000924   0.0001158  -0.0001687   0.0001918
    2   0.0001373  -0.0000704   0.0003971   0.0005376   0.0001565  -0.0001231
    3   0.0000871   0.0000824   0.0001140   0.0000121   0.0001330  -0.0000148
           13
    1   0.0002991
    2  -0.0015456
    3   0.0006871
 Max gradient component =       1.546E-03
 RMS gradient           =       4.692E-04
 Gradient time:  CPU 78.80 s  wall 5.71 s
 Geometry Optimization Parameters
   NAtoms,    NIC,     NZ,  NCons,   NDum,   NFix, NCnnct, MaxDiis
       13      70       0       0       0       0       0       0

 Cartesian Hessian Update
 Hessian Updated using Powell/Murtagh-Sargent Update
  Mixing factors:     0.994120 Powell
                      0.005880 Murtagh-Sargent


** GEOMETRY OPTIMIZATION IN DELOCALIZED INTERNAL COORDINATES **
   Searching for a Transition State

   Optimization Cycle:   2

                       Coordinates (Angstroms)
     ATOM                X               Y               Z
      1  C         1.7066891904    0.9106030862    0.3262696631
      2  O         0.4782036854    0.4710879282    0.8613499752
      3  C        -0.4252328841   -1.0809915958   -0.3229720604
      4  C        -1.7652041250   -0.5741234300   -0.6026293564
      5  O        -1.2923710205    0.7146262993   -0.7649486758
      6  H         1.9831093509    1.8781804959    0.7545503821
      7  H         2.4849039263    0.1879931169    0.5787171230
      8  H         1.6503627324    1.0165376000   -0.7624272509
      9  H         0.2735112785   -1.0766906527   -1.1485451002
     10  H        -0.1361471857   -1.6094328322    0.5739746065
     11  H        -2.2138136000   -1.0050548610   -1.5099442178
     12  H        -2.4660060157   -0.7112553673    0.2323373797
     13  H        -0.2873343329    0.8758192125    0.3157085319
   Point Group: c1    Number of degrees of freedom:    33


   Energy is   -269.462072793

 Hessian Updated using Powell/Murtagh-Sargent Update
  Mixing factors:     0.995127 Powell
                      0.004873 Murtagh-Sargent

 33 Hessian modes will be used to form the next step
  Hessian Eigenvalues:
    -0.303905    0.005189    0.007734    0.012387    0.022830    0.027024
     0.046212    0.065510    0.085116    0.090388    0.091312    0.096836
     0.099778    0.105029    0.122027    0.132778    0.150619    0.170764
     0.189045    0.192994    0.213244    0.286774    0.301205    0.304852
     0.315887    0.320080    0.325425    0.339502    0.356616    0.360954
     0.366312    0.381779    1.032969

 Transition State Search - Taking P-RFO Step
 Searching for Lamda that Maximizes Along the Lowest mode
 Value Taken    Lamda =   0.00001232
 Searching for Lamda that Minimizes Along All other modes
 Value Taken    Lamda =  -0.00013565
 Step Taken.  Stepsize is  0.125765

                             Maximum     Tolerance    Cnvgd?
         Gradient           0.001882      0.000100      NO
         Displacement       0.095887      0.000400      NO
         Energy change     -0.001778      0.000000      NO


 New Cartesian Coordinates Obtained by Inverse Iteration

 Displacement from previous Coordinates is:  0.140612
[...]
 H          0.035  0.015 -0.020    0.058  0.075  0.349   -0.196 -0.467 -0.306
 H         -0.031 -0.034  0.004    0.301 -0.045  0.121   -0.021  0.239  0.070
 H         -0.173 -0.070 -0.167   -0.182  0.017 -0.293    0.049  0.164 -0.043
 H         -0.040  0.508  0.038    0.213 -0.030 -0.201    0.148  0.089 -0.039
 H         -0.300  0.064 -0.099   -0.320 -0.070  0.330    0.026 -0.094  0.031
 H         -0.101 -0.029 -0.024    0.167  0.139  0.380    0.064 -0.104  0.040
 H          0.286  0.135  0.418    0.039  0.018 -0.150   -0.010  0.111 -0.055
 TransDip  -0.292  0.115 -0.131    0.001  0.008  0.029    0.073  0.004 -0.005

 Mode:                 4                      5                      6
 Frequency:       159.12                 206.46                 436.52
 Force Cnst:      0.0264                 0.0543                 0.5653
 Red. Mass:       1.7729                 2.1633                 5.0353
 IR Active:          YES                    YES                    YES
 IR Intens:       10.146                  4.352                133.975
 Raman Active:       YES                    YES                    YES
               X      Y      Z        X      Y      Z        X      Y      Z
 C          0.099 -0.068  0.040    0.125  0.115  0.090    0.046  0.001 -0.007
 O          0.017  0.060 -0.057    0.077 -0.036 -0.133    0.127 -0.235  0.109
 C          0.013  0.050  0.005   -0.097 -0.049  0.092    0.049  0.313  0.117
 C         -0.005 -0.051 -0.074   -0.059 -0.023 -0.061   -0.030 -0.037  0.012
 O         -0.129  0.012  0.086   -0.063 -0.011  0.018   -0.190 -0.003 -0.249
 H         -0.068  0.145 -0.290    0.137 -0.085  0.499   -0.123  0.052 -0.015
 H          0.095  0.073  0.528    0.086 -0.003 -0.170    0.166  0.119 -0.062
 H          0.353 -0.520 -0.036    0.187  0.549  0.144   -0.118 -0.011  0.009
 H          0.074  0.103  0.058   -0.017 -0.190  0.162    0.033  0.375  0.109
 H         -0.026  0.040  0.012   -0.217  0.019  0.169    0.044  0.196  0.050
 H          0.130 -0.009 -0.156    0.068 -0.006 -0.129    0.019 -0.373  0.138
 H         -0.071 -0.198 -0.160   -0.171 -0.045 -0.164    0.007  0.032  0.065
 H          0.032  0.065 -0.074    0.070 -0.018 -0.118    0.193  0.096  0.464
 TransDip   0.101 -0.009 -0.010    0.051  0.003  0.043    0.248  0.181  0.207

 Mode:                 7                      8                      9
 Frequency:       460.72                 782.02                 810.63
 Force Cnst:      0.9168                 0.4133                 0.4065
 Red. Mass:       7.3304                 1.1469                 1.0500
 IR Active:          YES                    YES                    YES
 IR Intens:       51.167                  4.016                  1.904
 Raman Active:       YES                    YES                    YES
               X      Y      Z        X      Y      Z        X      Y      Z
 C         -0.098 -0.034  0.015    0.032  0.013 -0.009    0.003  0.003 -0.004
 O         -0.134 -0.124 -0.259    0.005  0.024  0.018   -0.003  0.005 -0.013
 C          0.029  0.453  0.081   -0.048 -0.010  0.045   -0.011  0.005 -0.013
 C         -0.098 -0.105  0.027   -0.040  0.004  0.012    0.000  0.001 -0.043
 O          0.299 -0.156  0.167    0.037 -0.038 -0.009    0.012 -0.027  0.011
 H         -0.251 -0.054  0.159    0.021  0.016 -0.008   -0.002 -0.001  0.007
 H         -0.092 -0.001  0.116    0.042  0.020 -0.021   -0.001  0.001  0.005
 H          0.136  0.045  0.006    0.021  0.027 -0.007    0.026  0.020 -0.005
 H         -0.158  0.138 -0.069   -0.156  0.667 -0.048    0.420  0.365  0.364
 H          0.086  0.470  0.061    0.158 -0.512 -0.297   -0.416 -0.184  0.014
 H         -0.034  0.105 -0.068    0.172 -0.070 -0.064   -0.404  0.061  0.119
 H         -0.148 -0.021 -0.019   -0.242  0.039 -0.160    0.319 -0.018  0.251
 H         -0.168  0.022 -0.174   -0.009 -0.065 -0.095    0.004  0.006 -0.006
 TransDip  -0.117  0.197 -0.014   -0.029 -0.039 -0.042   -0.011  0.038  0.020

 Mode:                10                     11                     12
 Frequency:       993.03                1013.06                1072.90
 Force Cnst:      0.9442                 0.7217                 2.4650
 Red. Mass:       1.6251                 1.1935                 3.6345
 IR Active:          YES                    YES                    YES
 IR Intens:      146.611                102.431                153.879
 Raman Active:       YES                    YES                    YES
               X      Y      Z        X      Y      Z        X      Y      Z
 C         -0.061  0.003  0.001   -0.008  0.028 -0.018    0.249  0.089 -0.106
 O          0.019 -0.018 -0.066   -0.013  0.001 -0.031   -0.198 -0.047  0.106
 C          0.063 -0.100  0.033   -0.063  0.029 -0.016    0.132  0.058  0.029
 C         -0.028  0.137 -0.036    0.079 -0.034  0.032   -0.057  0.145 -0.080
 O         -0.022 -0.080  0.015    0.019  0.013  0.003   -0.039 -0.148  0.038
 H          0.021 -0.050  0.060    0.084 -0.030  0.038    0.177  0.063 -0.049
 H         -0.195 -0.092  0.130   -0.182 -0.099  0.119    0.134  0.010 -0.041
 H          0.109 -0.021 -0.014    0.124 -0.023 -0.029    0.189  0.032 -0.091
 H          0.129  0.297  0.081   -0.144 -0.184 -0.077   -0.039 -0.546 -0.123
 H          0.421  0.255  0.131   -0.321 -0.364 -0.158   -0.060 -0.375 -0.151
 H         -0.069  0.096 -0.017    0.166 -0.161  0.041   -0.255  0.102  0.010
 H         -0.091  0.185 -0.064    0.061 -0.096  0.003   -0.067  0.304 -0.028
 H          0.026  0.396  0.526    0.014  0.473  0.537   -0.164  0.021  0.064
 TransDip   0.165  0.256  0.240    0.172  0.142  0.235    0.330  0.221 -0.014

 Mode:                13                     14                     15
 Frequency:      1126.21                1157.97                1173.14
 Force Cnst:      1.8708                 1.4393                 1.4180
 Red. Mass:       2.5035                 1.8218                 1.7487
 IR Active:          YES                    YES                    YES
 IR Intens:        4.045                 11.424                  7.461
 Raman Active:       YES                    YES                    YES
               X      Y      Z        X      Y      Z        X      Y      Z
 C          0.132  0.069 -0.094    0.039  0.003  0.011    0.052 -0.014 -0.029
 O         -0.139 -0.069  0.043   -0.040 -0.019  0.001   -0.061 -0.015  0.013
 C         -0.040 -0.083  0.004   -0.043  0.010 -0.106   -0.140 -0.013 -0.021
 C         -0.049 -0.147  0.040    0.051  0.115  0.158    0.160  0.042 -0.060
 O          0.062  0.145 -0.035   -0.016 -0.101 -0.033   -0.017 -0.036  0.057
 H          0.155 -0.004  0.022    0.037  0.051 -0.090   -0.121  0.008  0.035
 H         -0.028 -0.036  0.079    0.100  0.034 -0.101    0.158  0.089 -0.052
 H          0.333  0.051 -0.102   -0.102 -0.011  0.016    0.054  0.086 -0.015
 H          0.084  0.361  0.112    0.278  0.127  0.177   -0.213  0.281 -0.080
 H          0.301  0.406  0.173   -0.337  0.239  0.112    0.054  0.400  0.133
 H         -0.049  0.209 -0.091    0.507  0.288 -0.140    0.151 -0.539  0.192
 H          0.038 -0.387  0.054   -0.205 -0.382 -0.148    0.272  0.349  0.082
 H         -0.137  0.131  0.215    0.056  0.030 -0.077    0.032 -0.037 -0.091
 TransDip   0.058 -0.027 -0.008    0.042  0.096 -0.026    0.039  0.018 -0.076

 Mode:                16                     17                     18
 Frequency:      1179.87                1198.68                1254.03
 Force Cnst:      1.0777                 1.0334                 1.2440
 Red. Mass:       1.3140                 1.2207                 1.3426
 IR Active:          YES                    YES                    YES
 IR Intens:        0.694                 72.383                  4.622
 Raman Active:       YES                    YES                    YES
               X      Y      Z        X      Y      Z        X      Y      Z
 C          0.037  0.071  0.112    0.057 -0.093  0.031   -0.020  0.020 -0.004
 O         -0.030 -0.041 -0.053   -0.038  0.035 -0.025    0.020 -0.007  0.008
 C         -0.011 -0.009  0.014    0.005 -0.019  0.027   -0.061  0.020  0.082
 C          0.005 -0.016 -0.023   -0.007 -0.019 -0.013    0.098  0.038 -0.036
 O          0.006  0.013  0.011    0.008  0.011 -0.003   -0.030 -0.053 -0.024
 H          0.523  0.176 -0.427   -0.421  0.072  0.003    0.071 -0.018  0.014
 H         -0.067 -0.137 -0.241    0.459  0.245 -0.234   -0.106 -0.054  0.044
 H         -0.513 -0.312  0.094   -0.362  0.125  0.086    0.062 -0.043 -0.016
 H         -0.040  0.058 -0.013   -0.068 -0.017 -0.036   -0.405  0.047 -0.204
 H          0.066  0.020  0.007    0.095 -0.067 -0.025    0.125 -0.025 -0.009
 H         -0.049 -0.067  0.026   -0.108  0.166 -0.046   -0.163  0.587 -0.149
 H          0.048  0.056  0.026    0.061 -0.131  0.030    0.379 -0.378  0.147
 H          0.049  0.095 -0.025    0.169  0.438  0.127    0.005 -0.103 -0.084
 TransDip   0.023  0.008  0.011    0.202  0.133  0.125    0.009  0.048 -0.049

 Mode:                19                     20                     21
 Frequency:      1349.05                1476.58                1478.43
 Force Cnst:      1.3879                 1.4727                 1.4890
 Red. Mass:       1.2944                 1.1465                 1.1562
 IR Active:          YES                    YES                    YES
 IR Intens:        8.478                 11.267                  8.405
 Raman Active:       YES                    YES                    YES
               X      Y      Z        X      Y      Z        X      Y      Z
 C          0.002 -0.001 -0.001   -0.090 -0.038  0.040    0.018  0.021 -0.024
 O         -0.003 -0.005 -0.001   -0.011 -0.004  0.004    0.000 -0.005  0.004
 C          0.004  0.001 -0.017   -0.031  0.017  0.002   -0.099  0.038 -0.013
 C          0.093 -0.115  0.045    0.002 -0.002 -0.002    0.008 -0.019  0.004
 O         -0.036 -0.003 -0.005   -0.004 -0.004 -0.004   -0.008 -0.009  0.003
 H          0.007  0.003 -0.010    0.398 -0.008 -0.311   -0.073 -0.052  0.176
 H          0.010  0.007  0.001    0.371  0.319 -0.270   -0.105 -0.058  0.128
 H          0.011  0.016 -0.001    0.523  0.172  0.015   -0.183 -0.110 -0.021
 H         -0.030  0.120 -0.039    0.108 -0.120  0.122    0.350 -0.262  0.371
 H         -0.175  0.040  0.050    0.180 -0.072 -0.110    0.510 -0.119 -0.286
 H         -0.114  0.535 -0.137    0.065  0.037 -0.042    0.205  0.113 -0.130
 H         -0.239  0.728 -0.117    0.065  0.051  0.058    0.154  0.183  0.152
 H         -0.009  0.045  0.030   -0.058  0.039  0.057    0.143  0.053 -0.104
 TransDip  -0.085  0.036 -0.015   -0.089 -0.037 -0.048    0.085  0.036 -0.007

 Mode:                22                     23                     24
 Frequency:      1499.99                1509.81                1520.35
 Force Cnst:      1.4077                 1.4395                 1.5832
 Red. Mass:       1.0619                 1.0718                 1.1625
 IR Active:          YES                    YES                    YES
 IR Intens:        7.936                 17.511                  2.171
 Raman Active:       YES                    YES                    YES
               X      Y      Z        X      Y      Z        X      Y      Z
 C          0.027 -0.057 -0.015   -0.043  0.012 -0.052   -0.007  0.008 -0.010
 O          0.007  0.006 -0.016   -0.013 -0.014  0.006    0.000  0.005 -0.006
 C         -0.009  0.004 -0.000    0.008 -0.002  0.001    0.053 -0.023  0.005
 C         -0.004  0.002 -0.001    0.021  0.004  0.002   -0.101 -0.010 -0.014
 O          0.000 -0.003 -0.005    0.001  0.002  0.005   -0.000 -0.001 -0.000
 H          0.180  0.054 -0.289    0.440 -0.310  0.319    0.106 -0.124  0.186
 H         -0.013  0.082  0.535    0.232  0.390  0.350    0.128  0.138  0.014
 H         -0.326  0.576  0.096   -0.215 -0.136 -0.039   -0.070 -0.179 -0.022
 H          0.004 -0.012  0.012   -0.025  0.022 -0.027   -0.115  0.107 -0.141
 H          0.023  0.001 -0.012   -0.033  0.012  0.019   -0.218  0.009  0.111
 H          0.062  0.019 -0.033   -0.172 -0.040  0.099    0.526  0.054 -0.305
 H          0.057  0.019  0.053   -0.129 -0.085 -0.138    0.371  0.228  0.419
 H         -0.261 -0.170  0.162    0.254  0.160 -0.177   -0.075 -0.005  0.064
 TransDip  -0.088  0.008  0.018    0.120  0.022  0.056   -0.013 -0.028  0.036

 Mode:                25                     26                     27
 Frequency:      1534.28                2614.56                2980.79
 Force Cnst:      1.5012                 4.4096                 5.5264
 Red. Mass:       1.0824                 1.0948                 1.0557
 IR Active:          YES                    YES                    YES
 IR Intens:       49.291                491.578                 75.370
 Raman Active:       YES                    YES                    YES
               X      Y      Z        X      Y      Z        X      Y      Z
 C         -0.026 -0.002 -0.013    0.002 -0.003 -0.001   -0.000 -0.000  0.000
 O         -0.013 -0.035  0.032   -0.056  0.026 -0.040   -0.002  0.000 -0.001
 C          0.032 -0.012  0.006    0.010  0.002  0.009    0.002 -0.002  0.001
 C         -0.034 -0.005 -0.007    0.006  0.001  0.007   -0.052 -0.025 -0.032
 O         -0.001  0.003  0.012    0.000  0.013  0.001   -0.002 -0.002  0.000
 H         -0.016  0.123 -0.262   -0.004 -0.024 -0.016    0.001  0.006  0.003
 H         -0.226 -0.135  0.127    0.006  0.038 -0.022    0.004 -0.003  0.001
 H          0.139  0.336  0.010    0.015 -0.001  0.039   -0.000  0.001 -0.006
 H         -0.046  0.031 -0.064   -0.001 -0.002  0.003    0.005  0.003 -0.004
 H         -0.080 -0.012  0.042   -0.001 -0.042  0.002   -0.004 -0.013  0.003
 H          0.108 -0.008 -0.072    0.006  0.013 -0.027    0.324  0.313  0.747
 H          0.067  0.050  0.087   -0.015  0.000  0.013    0.301  0.053 -0.374
 H          0.608  0.348 -0.394    0.665 -0.595  0.437    0.022 -0.011  0.014
 TransDip   0.194  0.110 -0.029    0.634  0.092  0.306   -0.228 -0.143 -0.070

 Mode:                28                     29                     30
 Frequency:      3024.22                3029.15                3097.62
 Force Cnst:      5.9502                 5.5779                 6.2444
 Red. Mass:       1.1042                 1.0318                 1.1045
 IR Active:          YES                    YES                    YES
 IR Intens:       50.769                 43.539                 30.354
 Raman Active:       YES                    YES                    YES
               X      Y      Z        X      Y      Z        X      Y      Z
 C          0.001  0.000 -0.000    0.031  0.019 -0.028   -0.024 -0.044 -0.079
 O          0.000  0.000  0.000    0.005 -0.000  0.001   -0.000 -0.000  0.000
 C         -0.002 -0.001  0.002   -0.001 -0.001 -0.001   -0.000  0.000 -0.000
 C          0.033 -0.007 -0.087   -0.002 -0.001  0.001    0.000 -0.000 -0.000
 O          0.000  0.001  0.001    0.001 -0.001  0.000    0.000 -0.000  0.000
 H         -0.003 -0.011 -0.006   -0.144 -0.471 -0.239    0.198  0.670  0.318
 H         -0.009  0.008 -0.003   -0.313  0.316 -0.097    0.036 -0.053 -0.006
 H          0.001 -0.002  0.012    0.052 -0.084  0.691    0.049 -0.090  0.622
 H          0.013  0.001 -0.021    0.000  0.002  0.003    0.003  0.002 -0.001
 H         -0.005  0.015 -0.025   -0.001  0.007 -0.004   -0.000  0.000  0.001
 H          0.194  0.170  0.392   -0.001 -0.000  0.000    0.000 -0.000  0.000
 H         -0.579 -0.107  0.650    0.015  0.003 -0.017   -0.002 -0.000  0.002
 H         -0.002  0.004 -0.004   -0.035  0.027 -0.025    0.000  0.003 -0.003
 TransDip   0.124  0.009 -0.191    0.182  0.083 -0.067   -0.054 -0.087 -0.144

 Mode:                31                     32                     33
 Frequency:      3120.12                3184.09                3297.32
 Force Cnst:      6.3353                 6.2951                 7.1831
 Red. Mass:       1.1045                 1.0539                 1.1213
 IR Active:          YES                    YES                    YES
 IR Intens:       29.755                  4.067                  2.369
 Raman Active:       YES                    YES                    YES
               X      Y      Z        X      Y      Z        X      Y      Z
 C          0.045 -0.077  0.029    0.001 -0.000 -0.000    0.000 -0.000 -0.000
 O          0.000  0.001  0.000    0.000 -0.001  0.000    0.000 -0.001  0.001
 C          0.000 -0.000  0.000   -0.056  0.031 -0.008    0.025  0.027 -0.095
 C         -0.000 -0.000  0.000    0.004 -0.001  0.000    0.002 -0.000 -0.003
 O          0.000 -0.000 -0.000    0.000 -0.001  0.000   -0.000  0.000  0.000
 H          0.097  0.269  0.153   -0.001 -0.003 -0.001   -0.001  0.000  0.001
 H         -0.611  0.617 -0.187   -0.004  0.005 -0.001   -0.003  0.003 -0.001
 H         -0.019  0.021 -0.310    0.001 -0.000  0.001   -0.001 -0.001  0.002
 H          0.001 -0.000  0.001    0.441  0.001 -0.525   -0.477 -0.002  0.545
 H         -0.000  0.004 -0.004    0.184 -0.339  0.613    0.182 -0.317  0.575
 H         -0.001 -0.000 -0.001   -0.003  0.002 -0.003    0.008  0.004  0.017
 H          0.002  0.000 -0.002   -0.003 -0.000  0.003   -0.023 -0.001  0.023
 H         -0.011 -0.003 -0.002   -0.005  0.001 -0.003   -0.006  0.004 -0.008
 TransDip   0.097 -0.134  0.056   -0.045  0.043 -0.018   -0.023  0.029 -0.032

 STANDARD THERMODYNAMIC QUANTITIES AT   298.15 K  AND     1.00 ATM

   This Molecule has  1 Imaginary Frequencies
   Zero point vibrational energy:       68.629 kcal/mol

   Atom    1 Element C  Has Mass   12.00000
   Atom    2 Element O  Has Mass   15.99491
   Atom    3 Element C  Has Mass   12.00000
   Atom    4 Element C  Has Mass   12.00000
   Atom    5 Element O  Has Mass   15.99491
   Atom    6 Element H  Has Mass    1.00783
   Atom    7 Element H  Has Mass    1.00783
   Atom    8 Element H  Has Mass    1.00783
   Atom    9 Element H  Has Mass    1.00783
   Atom   10 Element H  Has Mass    1.00783
   Atom   11 Element H  Has Mass    1.00783
   Atom   12 Element H  Has Mass    1.00783
   Atom   13 Element H  Has Mass    1.00783
   Molecular Mass:    76.052460 amu
   Principal axes and moments of inertia in amu*Bohr^2:
                             1           2           3
    Eigenvalues --      174.34992   619.06095   695.19554
          X               0.87283    -0.28338    -0.39731
          Y               0.33902     0.93771     0.07596
          Z               0.35104    -0.20100     0.91453
   Rotational Symmetry Number is   1
   The Molecule is an Asymmetric Top
   Translational Enthalpy:        0.889 kcal/mol
   Rotational Enthalpy:           0.889 kcal/mol
   Vibrational Enthalpy:         70.803 kcal/mol
   gas constant (RT):             0.592 kcal/mol
   Translational Entropy:        38.902  cal/mol.K
   Rotational Entropy:           25.820  cal/mol.K
   Vibrational Entropy:          13.131  cal/mol.K

   Total Enthalpy:               73.173 kcal/mol
   Total Entropy:                77.853  cal/mol.K
Archival summary:
1\1\nid00505\FREQ\ProcedureUnspecified\BasisUnspecified\238\cgrambow\WedFeb1300:20:082019WedFeb1300:20:082019\0\\#,FREQ,ProcedureUnspecified,BasisUnspecified,\\0,1\O\H,1,1.0227\C,1,1.41082,2,109.405\H,3,1.09186,1,109.047,2,-153.279,0\H,3,1.09355,1,110.3,2,87.8944,0\H,3,1.09527,1,111.278,2,-32.69,0\O,2,1.49479,1,147.447,3,99.9495,0\C,7,1.3839,2,105.678,1,37.3337,0\H,8,1.09857,7,115.009,2,78.2101,0\H,8,1.10021,7,114.002,2,-155.379,0\C,8,1.45963,7,91.6539,2,-38.9386,0\H,11,1.08074,8,124.831,7,122.322,0\H,11,1.08156,8,116.583,7,-70.2363,0\\\@

 Total job time:  1377.75s(wall), 4751.24s(cpu) 
 Wed Feb 13 00:20:08 2019

        *************************************************************
        *                                                           *
        *  Thank you very much for using Q-Chem.  Have a nice day.  *
        *                                                           *
        *************************************************************


