
Running Job 1 of 2 prod_optfreq0096.in
qchem prod_optfreq0096.in_37477.0 /tmp/qchem37477/ 1
/global/common/cori/software/qchem/5.1/exe/qcprog.exe prod_optfreq0096.in_37477.0 /tmp/qchem37477/
Check license passed

                  Welcome to Q-Chem
     A Quantum Leap Into The Future Of Chemistry


 Q-Chem 5.1, Q-Chem, Inc., Pleasanton, CA (2018)

 Yihan Shao,  Zhengting Gan,  E. Epifanovsky,  A. T. B. Gilbert,  M. Wormit,  
 J. Kussmann,  A. W. Lange,  A. Behn,  Jia Deng,  Xintian Feng,  D. Ghosh,  
 M. Goldey,  P. R. Horn,  L. D. Jacobson,  I. Kaliman,  T. Kus,  A. Landau,  
 Jie Liu,  E. I. Proynov,  R. M. Richard,  R. P. Steele,  E. J. Sundstrom,  
 H. L. Woodcock III,  P. M. Zimmerman,  D. Zuev,  B. Albrecht,  E. Alguire,  
 S. A. Baeppler,  D. Barton,  Z. Benda,  Y. A. Bernard,  E. J. Berquist,  
 K. B. Bravaya,  H. Burton,  D. Casanova,  Chun-Min Chang,  Yunqing Chen,  
 A. Chien,  K. D. Closser,  M. P. Coons,  S. Coriani,  S. Dasgupta,  
 A. L. Dempwolff,  M. Diedenhofen,  Hainam Do,  R. G. Edgar,  Po-Tung Fang,  
 S. Faraji,  S. Fatehi,  Qingguo Feng,  K. D. Fenk,  J. Fosso-Tande,  
 Qinghui Ge,  A. Ghysels,  G. Gidofalvi,  J. Gomes,  J. Gonthier,  A. Gunina,  
 D. Hait,  M. W. D. Hanson-Heine,  P. H. P. Harbach,  A. W. Hauser,  
 J. E. Herr,  E. G. Hohenstein,  Z. C. Holden,  Kerwin Hui,  B. C. Huynh,  
 T.-C. Jagau,  Hyunjun Ji,  B. Kaduk,  K. Khistyaev,  Jaehoon Kim,  
 P. Klunzinger,  K. Koh,  D. Kosenkov,  L. Koulias,  T. Kowalczyk,  
 C. M. Krauter,  A. Kunitsa,  Ka Un Lao,  A. Laurent,  K. V. Lawler,  
 Joonho Lee,  D. Lefrancois,  S. Lehtola,  D. S. Levine,  Yi-Pei Li,  
 You-Sheng Lin,  Fenglai Liu,  E. Livshits,  A. Luenser,  P. Manohar,  
 E. Mansoor,  S. F. Manzer,  Shan-Ping Mao,  Yuezhi Mao,  N. Mardirossian,  
 A. V. Marenich,  T. Markovich,  L. A. Martinez-Martinez,  S. A. Maurer,  
 N. J. Mayhall,  S. C. McKenzie,  J.-M. Mewes,  A. F. Morrison,  
 J. W. Mullinax,  K. Nanda,  T. S. Nguyen-Beck,  R. Olivares-Amaya,  
 J. A. Parkhill,  T. M. Perrine,  F. Plasser,  P. Pokhilko,  S. Prager,  
 A. Prociuk,  E. Ramos,  D. R. Rehn,  F. Rob,  M. Schneider,  N. Sergueev,  
 S. M. Sharada,  S. Sharma,  D. W. Small,  T. Stauch,  T. Stein,  
 Yu-Chuan Su,  A. J. W. Thom,  A. Tkatchenko,  T. Tsuchimochi,  N. M. Tubman,  
 L. Vogt,  M. L. Vidal,  O. Vydrov,  M. A. Watson,  J. Wenzel,  
 M. de Wergifosse,  T. A. Wesolowski,  A. White,  J. Witte,  A. Yamada,  
 Jun Yang,  K. Yao,  S. Yeganeh,  S. R. Yost,  Zhi-Qiang You,  A. Zech,  
 Igor Ying Zhang,  Xing Zhang,  Yan Zhao,  Ying Zhu,  B. R. Brooks,  
 G. K. L. Chan,  C. J. Cramer,  M. S. Gordon,  W. J. Hehre,  A. Klamt,  
 M. W. Schmidt,  C. D. Sherrill,  D. G. Truhlar,  A. Aspuru-Guzik,  R. Baer,  
 A. T. Bell,  N. A. Besley,  Jeng-Da Chai,  R. A. DiStasio Jr.,  A. Dreuw,  
 B. D. Dunietz,  T. R. Furlani,  Chao-Ping Hsu,  Yousung Jung,  Jing Kong,  
 D. S. Lambrecht,  WanZhen Liang,  C. Ochsenfeld,  V. A. Rassolov,  
 L. V. Slipchenko,  J. E. Subotnik,  T. Van Voorhis,  J. M. Herbert,  
 A. I. Krylov,  P. M. W. Gill,  M. Head-Gordon

 Contributors to earlier versions of Q-Chem not listed above: 
 R. D. Adamson,  B. Austin,  J. Baker,  G. J. O. Beran,  K. Brandhorst,  
 S. T. Brown,  E. F. C. Byrd,  A. K. Chakraborty,  C.-L. Cheng,  
 Siu Hung Chien,  D. M. Chipman,  D. L. Crittenden,  H. Dachsel,  
 R. J. Doerksen,  A. D. Dutoi,  L. Fusti-Molnar,  W. A. Goddard III,  
 A. Golubeva-Zadorozhnaya,  S. R. Gwaltney,  G. Hawkins,  A. Heyden,  
 S. Hirata,  G. Kedziora,  F. J. Keil,  C. Kelley,  Jihan Kim,  R. A. King,  
 R. Z. Khaliullin,  P. P. Korambath,  W. Kurlancheek,  A. M. Lee,  M. S. Lee,  
 S. V. Levchenko,  Ching Yeh Lin,  D. Liotard,  R. C. Lochan,  I. Lotan,  
 P. E. Maslen,  N. Nair,  D. P. O'Neill,  D. Neuhauser,  E. Neuscamman,  
 C. M. Oana,  R. Olson,  B. Peters,  R. Peverati,  P. A. Pieniazek,  
 Y. M. Rhee,  J. Ritchie,  M. A. Rohrdanz,  E. Rosta,  N. J. Russ,  
 H. F. Schaefer III,  N. E. Schultz,  N. Shenvi,  A. C. Simmonett,  A. Sodt,  
 D. Stuck,  K. S. Thanthiriwatte,  V. Vanovschi,  Tao Wang,  A. Warshel,  
 C. F. Williams,  Q. Wu,  X. Xu,  W. Zhang

 Please cite Q-Chem as follows:
 Y. Shao et al., Mol. Phys. 113, 184-215 (2015)
 DOI: 10.1080/00268976.2014.952696

 Q-Chem 5.1.0 for Intel X86 EM64T Linux

 Parts of Q-Chem use Armadillo 8.300.2 (Tropical Shenanigans).
 http://arma.sourceforge.net/

 Q-Chem begins on Tue Feb 12 23:20:18 2019  

Host: cori07
0

     Scratch files written to /tmp/qchem37477//
 Jun2518 |scratch|qcdevops|jenkins|workspace|build_RNUM -1
Processing $rem in /global/common/cori/software/qchem/5.1/config/preferences.
 MEM_TOTAL  96000 

Checking the input file for inconsistencies... 	...done.

--------------------------------------------------------------
User input:
--------------------------------------------------------------
$molecule
0 1
C   0.7045614020   0.2836351078   0.2103072878
O   1.3729129537  -0.8272788906   0.8567442859
C   0.2896037868  -1.7293469685   0.4955242745
C  -0.4874571653  -0.5981106533  -0.2107632669
O  -1.1504746568   2.3096538083  -1.3615657371
H   0.4739845145   1.0918767858   0.9253895868
H   1.3083961632   0.6962963713  -0.6161420492
H  -0.2487884309   2.1881789979  -1.7067487936
H   0.6393570581  -2.5457651987  -0.1558071783
H  -0.1963534971  -2.1594314341   1.3854398275
H  -0.6220857925  -0.7166938228  -1.2904013808
H  -1.4484353361  -0.3307138621   0.2400031873
H  -1.0038389997   2.5181327588  -0.4225130437
$end

$rem
JOBTYPE                   OPT
METHOD                    wB97X-D3
BASIS                     def2-TZVP
UNRESTRICTED              TRUE
SCF_ALGORITHM             DIIS
MAX_SCF_CYCLES            100
SCF_CONVERGENCE           8
SYM_IGNORE                TRUE
SYMMETRY                  FALSE
GEOM_OPT_MAX_CYCLES       100
GEOM_OPT_TOL_GRADIENT     100
GEOM_OPT_TOL_DISPLACEMENT 400
GEOM_OPT_TOL_ENERGY       33
WAVEFUNCTION_ANALYSIS     FALSE
$end

--------------------------------------------------------------
 Adding empirical dispersion correction 
 ----------------------------------------------------------------
 Doing -D3(0) with
 s6  =   1.00000
 s8  =   1.00000
 rs6 =   1.28100
 rs8 =   1.09400
 -D3 energy without 3body term =     -0.0030659653 hartrees
 ----------------------------------------------------------------
             Standard Nuclear Orientation (Angstroms)
    I     Atom           X                Y                Z
 ----------------------------------------------------------------
    1      C       0.7045614020     0.2836351078     0.2103072878
    2      O       1.3729129537    -0.8272788906     0.8567442859
    3      C       0.2896037868    -1.7293469685     0.4955242745
    4      C      -0.4874571653    -0.5981106533    -0.2107632669
    5      O      -1.1504746568     2.3096538083    -1.3615657371
    6      H       0.4739845145     1.0918767858     0.9253895868
    7      H       1.3083961632     0.6962963713    -0.6161420492
    8      H      -0.2487884309     2.1881789979    -1.7067487936
    9      H       0.6393570581    -2.5457651987    -0.1558071783
   10      H      -0.1963534971    -2.1594314341     1.3854398275
   11      H      -0.6220857925    -0.7166938228    -1.2904013808
   12      H      -1.4484353361    -0.3307138621     0.2400031873
   13      H      -1.0038389997     2.5181327588    -0.4225130437
 ----------------------------------------------------------------
 Nuclear Repulsion Energy =   181.9983900354 hartrees
 There are       21 alpha and       21 beta electrons
 Requested basis set is def2-TZVP
 There are 87 shells and 203 basis functions

 Total QAlloc Memory Limit  96000 MB
 Mega-Array Size       188 MB
 MEM_STATIC part       192 MB
 A cutoff of  1.0D-11 yielded   3520 shell pairs
 There are     19118 function pairs (     24069 Cartesian)
 
 -------------------------------------------------------
 OpenMP Integral Computing Module                       
 Release: version 1.0, May 2013, Q-Chem Inc. Pittsburgh 
 -------------------------------------------------------
 Integral Job Info:
 Integral job number is                      11
 Integral operator is                         1
 short-range coefficients              19572800
 long-range coefficients              100000000
 Omega coefficients                         250
 if combine SR and LR in K                    1
 Integral screening is                        0
 Integral computing path is                   2
 max size of driver memory is            800000
 size of driver memory is                776718
 size of scratch memory is              4473992
 max col of scratch BK array              10000
 max len of scratch array in speh3          662
 max len of scratch index in speh4           32
 max int batch size is                      520
 min int batch size is                       52
 fixed nKL is                                52
 max L of basis functions is                  3
 order of int derivative is                   0
 number of shells is                         87
 number of basis is                         228
 number of cartesian basis is               228
 number of contracted shell pairs          3520
 number of primitive shell pairs           7996
 maxK2 (contraction) of shell pair           36
 max number of K2 of shell pair               1
 max number of CS2 of shell pair            577
 max number of PS2 of shell pair           1002
 mem total for path MDJ                  559778
 -------------------------------------------------------
 Smallest overlap matrix eigenvalue = 3.19E-04

 Scale SEOQF with 1.000000e-01/1.000000e-01/1.000000e-01

 Standard Electronic Orientation quadrupole field applied
 Nucleus-field energy     =     0.0000000047 hartrees
 Guess from superposition of atomic densities
 Warning:  Energy on first SCF cycle will be non-variational
 SAD guess density has 42.000000 electrons

 -----------------------------------------------------------------------
  General SCF calculation program by
  Eric Jon Sundstrom, Paul Horn, Yuezhi Mao, Dmitri Zuev, Alec White,
  David Stuck, Shaama M.S., Shane Yost, Joonho Lee, David Small,
  Daniel Levine, Susi Lehtola, Hugh Burton, Evgeny Epifanovsky
 -----------------------------------------------------------------------
 Exchange:     0.1957 Hartree-Fock + 1.0000 wB97X-D3 + LR-HF
 Correlation:  1.0000 wB97X-D3
 Using SG-2 standard quadrature grid
 Dispersion:   Grimme D3
 using 16 threads for integral computing
 -------------------------------------------------------
 OpenMP Integral computing Module                
 Release: version 1.0, May 2013, Q-Chem Inc. Pittsburgh 
 -------------------------------------------------------
 using 16 threads for integral computing
 -------------------------------------------------------
 OpenMP Integral computing Module                
 Release: version 1.0, May 2013, Q-Chem Inc. Pittsburgh 
 -------------------------------------------------------
 -------------------------------------------------------
 OpenMP BLAS3 based DFT computing Module                
 Release: version 1.0, May 2013, Q-Chem Inc. Pittsburgh 
 -------------------------------------------------------
 A unrestricted SCF calculation will be
 performed using DIIS
 SCF converges when DIIS error is below 1.0e-08
 ---------------------------------------
  Cycle       Energy         DIIS error
 ---------------------------------------
    1    -270.3410015753      1.83e-02  
    2    -269.4599940855      2.54e-03  
    3    -269.4624173469      2.77e-03  
    4    -269.5638501019      2.06e-04  
    5    -269.5643813932      1.07e-04  
    6    -269.5645451477      3.44e-05  
    7    -269.5645615163      8.04e-06  
    8    -269.5645626111      1.62e-06  
    9    -269.5645626825      2.38e-07  
   10    -269.5645626857      5.09e-08  
   11    -269.5645626858      2.31e-08  
   12    -269.5645626859      7.07e-09  Convergence criterion met
 ---------------------------------------
 SCF time:   CPU 346.78s  wall 27.00s 
<S^2> =          0.000000000
 SCF   energy in the final basis set =     -269.5645626859
 Total energy in the final basis set =     -269.5645626859
 No wavefunction analysis requested
 Calculating analytic gradient of the SCF energy
 Gradient of SCF Energy
            1           2           3           4           5           6
    1  -0.0012505   0.0135097  -0.0023404  -0.0034274  -0.0163476  -0.0018455
    2   0.0041031  -0.0016173  -0.0030206   0.0009927  -0.0020980   0.0045324
    3  -0.0015838   0.0077193  -0.0005820  -0.0021881  -0.0090558   0.0027075
            7           8           9          10          11          12
    1   0.0020415   0.0131388   0.0009570  -0.0032234  -0.0007696  -0.0044584
    2   0.0026399  -0.0017550  -0.0043263  -0.0024748  -0.0003664   0.0011942
    3  -0.0044504  -0.0027093  -0.0034341   0.0039401  -0.0048284   0.0018483
           13
    1   0.0040157
    2   0.0021961
    3   0.0126167
 Max gradient component =       1.635E-02
 RMS gradient           =       5.522E-03
 Gradient time:  CPU 73.05 s  wall 6.47 s
 Geometry Optimization Parameters
   NAtoms,    NIC,     NZ,  NCons,   NDum,   NFix, NCnnct, MaxDiis
       13      98       0       0       0       0       0       0


** GEOMETRY OPTIMIZATION IN DELOCALIZED INTERNAL COORDINATES **
   Searching for a Minimum

   Optimization Cycle:   1

                       Coordinates (Angstroms)
     ATOM                X               Y               Z
      1  C         0.7045614020    0.2836351078    0.2103072878
      2  O         1.3729129537   -0.8272788906    0.8567442859
      3  C         0.2896037868   -1.7293469685    0.4955242745
      4  C        -0.4874571653   -0.5981106533   -0.2107632669
      5  O        -1.1504746568    2.3096538083   -1.3615657371
      6  H         0.4739845145    1.0918767858    0.9253895868
      7  H         1.3083961632    0.6962963713   -0.6161420492
      8  H        -0.2487884309    2.1881789979   -1.7067487936
      9  H         0.6393570581   -2.5457651987   -0.1558071783
     10  H        -0.1963534971   -2.1594314341    1.3854398275
     11  H        -0.6220857925   -0.7166938228   -1.2904013808
     12  H        -1.4484353361   -0.3307138621    0.2400031873
     13  H        -1.0038389997    2.5181327588   -0.4225130437
   Point Group: c1    Number of degrees of freedom:    33


   Energy is   -269.564562686


 Attempting to Generate Delocalized Internal Coordinates

 33 Hessian modes will be used to form the next step
  Hessian Eigenvalues:
     0.002973    0.004927    0.011396    0.015260    0.023528    0.025270
     0.030593    0.043157    0.045457    0.051094    0.052844    0.062450
     0.064221    0.067675    0.081249    0.084662    0.097750    0.104833
     0.126523    0.147454    0.192913    0.262379    0.275913    0.323500
     0.325940    0.335269    0.335280    0.342853    0.343042    0.353351
     0.364737    0.496837    0.512035

 Minimum Search - Taking Simple RFO Step
 Searching for Lamda that Minimizes Along All modes
 Value Taken    Lamda =  -0.00241704
 Step Taken.  Stepsize is  0.168811

                             Maximum     Tolerance    Cnvgd?
         Gradient           0.016416      0.000100      NO
         Displacement       0.098867      0.000400      NO
         Energy change     *********      0.000000      NO


 New Cartesian Coordinates Obtained by Inverse Iteration

 Displacement from previous Coordinates is:  0.352419
 Adding empirical dispersion correction 
 ----------------------------------------------------------------
 Doing -D3(0) with
 s6  =   1.00000
 s8  =   1.00000
 rs6 =   1.28100
 rs8 =   1.09400
 -D3 energy without 3body term =     -0.0029917523 hartrees
 ----------------------------------------------------------------
             Standard Nuclear Orientation (Angstroms)
    I     Atom           X                Y                Z
 ----------------------------------------------------------------
    1      C       0.6740358756     0.2665078001     0.1969147546
    2      O       1.3549412241    -0.8178671593     0.8438170645
    3      C       0.3007217849    -1.7388089126     0.5049964200
    4      C      -0.4941012120    -0.6380122304    -0.2051777861
    5      O      -1.1248054491     2.4042877886    -1.3705277474
    6      H       0.4465293650     1.0662385638     0.9109756140
    7      H       1.2767060521     0.6735552199    -0.6231497952
    8      H      -0.2405585192     2.2523365598    -1.7116369517
    9      H       0.6688769945    -2.5480493382    -0.1303348152
   10      H      -0.1596929337    -2.1619814934     1.4010163078
   11      H      -0.6296669392    -0.7721549200    -1.2752734259
   12      H      -1.4510399018    -0.3856681983     0.2443949443
   13      H      -0.9905643411     2.5800493200    -0.4365475837
 ----------------------------------------------------------------
 Nuclear Repulsion Energy =   182.3338649053 hartrees
 There are       21 alpha and       21 beta electrons
 Applying Cartesian multipole field
    Component          Value
    ---------          -----
     (2,0,0)        1.00000E-11
     (0,2,0)        2.00000E-11
     (0,0,2)       -3.00000E-11
 Nucleus-field energy     =     0.0000000050 hartrees
 Requested basis set is def2-TZVP
 There are 87 shells and 203 basis functions
 A cutoff of  1.0D-11 yielded   3498 shell pairs
 There are     19010 function pairs (     23931 Cartesian)
 Smallest overlap matrix eigenvalue = 3.01E-04
 Guess MOs from SCF MO coefficient file
 Reading MOs from coefficient file
 Reading MOs from coefficient file

 -----------------------------------------------------------------------
  General SCF calculation program by
  Eric Jon Sundstrom, Paul Horn, Yuezhi Mao, Dmitri Zuev, Alec White,
  David Stuck, Shaama M.S., Shane Yost, Joonho Lee, David Small,
  Daniel Levine, Susi Lehtola, Hugh Burton, Evgeny Epifanovsky
 -----------------------------------------------------------------------
 Exchange:     0.1957 Hartree-Fock + 1.0000 wB97X-D3 + LR-HF
 Correlation:  1.0000 wB97X-D3
 Using SG-2 standard quadrature grid
 Dispersion:   Grimme D3
 using 16 threads for integral computing
 -------------------------------------------------------
 OpenMP Integral computing Module                
 Release: version 1.0, May 2013, Q-Chem Inc. Pittsburgh 
 -------------------------------------------------------
 using 16 threads for integral computing
 -------------------------------------------------------
 OpenMP Integral computing Module                
 Release: version 1.0, May 2013, Q-Chem Inc. Pittsburgh 
 -------------------------------------------------------
 -------------------------------------------------------
 OpenMP BLAS3 based DFT computing Module                
 Release: version 1.0, May 2013, Q-Chem Inc. Pittsburgh 
 -------------------------------------------------------
 A unrestricted SCF calculation will be
 performed using DIIS
 SCF converges when DIIS error is below 1.0e-08
 ---------------------------------------
  Cycle       Energy         DIIS error
 ---------------------------------------
    1    -269.6102070312      3.68e-04  
    2    -269.5656776817      7.57e-05  
    3    -269.5657660548      5.37e-05  
    4    -269.5658108149      1.32e-05  
    5    -269.5658137480      5.85e-06  
    6    -269.5658144244      1.67e-06  
    7    -269.5658145092      3.52e-07  
    8    -269.5658145154      2.10e-07  
    9    -269.5658145164      4.38e-08  
   10    -269.5658145165      1.00e-08  
   11    -269.5658145165      4.00e-09  Convergence criterion met
 ---------------------------------------
 SCF time:   CPU 325.04s  wall 24.00s 
<S^2> =          0.000000000
 SCF   energy in the final basis set =     -269.5658145165
 Total energy in the final basis set =     -269.5658145165
 No wavefunction analysis requested
 Calculating analytic gradient of the SCF energy
 Gradient of SCF Energy
            1           2           3           4           5           6
    1  -0.0033170   0.0014431  -0.0026388   0.0007741  -0.0022945   0.0006351
    2   0.0018482   0.0005780  -0.0014100  -0.0004770  -0.0000718  -0.0000738
    3  -0.0021705   0.0007036  -0.0010514   0.0003845  -0.0013290   0.0010687
            7           8           9          10          11          12
    1   0.0011575   0.0013347   0.0004582   0.0004988   0.0001435   0.0003071
    2  -0.0003192  -0.0003529   0.0004748   0.0004183  -0.0000160  -0.0001547
    3   0.0000029   0.0011238   0.0001803   0.0000963   0.0002679   0.0000180
           13
    1   0.0014981
    2  -0.0004438
    3   0.0007050
 Max gradient component =       3.317E-03
 RMS gradient           =       1.136E-03
 Gradient time:  CPU 72.30 s  wall 5.47 s
 Geometry Optimization Parameters
   NAtoms,    NIC,     NZ,  NCons,   NDum,   NFix, NCnnct, MaxDiis
       13      98       0       0       0       0       0       0

 Cartesian Hessian Update
 Hessian Updated using BFGS Update


** GEOMETRY OPTIMIZATION IN DELOCALIZED INTERNAL COORDINATES **
   Searching for a Minimum

   Optimization Cycle:   2

                       Coordinates (Angstroms)
     ATOM                X               Y               Z
      1  C         0.6740358756    0.2665078001    0.1969147546
      2  O         1.3549412241   -0.8178671593    0.8438170645
      3  C         0.3007217849   -1.7388089126    0.5049964200
      4  C        -0.4941012120   -0.6380122304   -0.2051777861
      5  O        -1.1248054491    2.4042877886   -1.3705277474
      6  H         0.4465293650    1.0662385638    0.9109756140
      7  H         1.2767060521    0.6735552199   -0.6231497952
      8  H        -0.2405585192    2.2523365598   -1.7116369517
      9  H         0.6688769945   -2.5480493382   -0.1303348152
     10  H        -0.1596929337   -2.1619814934    1.4010163078
     11  H        -0.6296669392   -0.7721549200   -1.2752734259
     12  H        -1.4510399018   -0.3856681983    0.2443949443
     13  H        -0.9905643411    2.5800493200   -0.4365475837
   Point Group: c1    Number of degrees of freedom:    33


   Energy is   -269.565814516

 Hessian Updated using BFGS Update

 33 Hessian modes will be used to form the next step
  Hessian Eigenvalues:
     0.002973    0.004927    0.012002    0.014633    0.023506    0.025268
     0.030592    0.043164    0.045456    0.051934    0.053610    0.062450
     0.064349    0.067675    0.081168    0.084661    0.097755    0.104912
     0.126518    0.143873    0.193328    0.262353    0.279956    0.322254
     0.325941    0.335274    0.337668    0.342946    0.344481    0.347708
     0.362576    0.496570    0.499948

 Minimum Search - Taking Simple RFO Step
 Searching for Lamda that Minimizes Along All modes
 Value Taken    Lamda =  -0.00015554
 Step Taken.  Stepsize is  0.073217

                             Maximum     Tolerance    Cnvgd?
         Gradient           0.002088      0.000100      NO
         Displacement       0.040409      0.000400      NO
         Energy change     -0.001252      0.000000      NO


 New Cartesian Coordinates Obtained by Inverse Iteration

 Displacement from previous Coordinates is:  0.069599
 Adding empirical dispersion correction 
 ----------------------------------------------------------------
 Doing -D3(0) with
 s6  =   1.00000
 s8  =   1.00000
 rs6 =   1.28100
 rs8 =   1.09400
 -D3 energy without 3body term =     -0.0029875876 hartrees
 ----------------------------------------------------------------
             Standard Nuclear Orientation (Angstroms)
    I     Atom           X                Y                Z
 ----------------------------------------------------------------
    1      C       0.6836879599     0.2602414479     0.2029646431
    2      O       1.3586631980    -0.8274455858     0.8471509378
    3      C       0.3025019710    -1.7415562604     0.5073077914
    4      C      -0.4880905349    -0.6370941850    -0.2031824175
    5      O      -1.1318646254     2.4152336862    -1.3756977783
    6      H       0.4506722993     1.0615319899     0.9124658540
    7      H       1.2798512708     0.6704357321    -0.6193468626
    8      H      -0.2517902073     2.2593304259    -1.7210743912
    9      H       0.6627545991    -2.5531604481    -0.1294524518
   10      H      -0.1645321508    -2.1650904385     1.3996326529
   11      H      -0.6222700991    -0.7686774128    -1.2737617835
   12      H      -1.4448132354    -0.3804236335     0.2443503355
   13      H      -1.0033884453     2.5871076817    -0.4418895297
 ----------------------------------------------------------------
 Nuclear Repulsion Energy =   182.1883241137 hartrees
 There are       21 alpha and       21 beta electrons
 Applying Cartesian multipole field
    Component          Value
    ---------          -----
     (2,0,0)        1.00000E-11
     (0,2,0)        2.00000E-11
     (0,0,2)       -3.00000E-11
 Nucleus-field energy     =     0.0000000050 hartrees
 Requested basis set is def2-TZVP
 There are 87 shells and 203 basis functions
 A cutoff of  1.0D-11 yielded   3490 shell pairs
 There are     18964 function pairs (     23873 Cartesian)
 Smallest overlap matrix eigenvalue = 3.02E-04
 Guess MOs from SCF MO coefficient file
 Reading MOs from coefficient file
 Reading MOs from coefficient file

 -----------------------------------------------------------------------
  General SCF calculation program by
  Eric Jon Sundstrom, Paul Horn, Yuezhi Mao, Dmitri Zuev, Alec White,
  David Stuck, Shaama M.S., Shane Yost, Joonho Lee, David Small,
  Daniel Levine, Susi Lehtola, Hugh Burton, Evgeny Epifanovsky
 -----------------------------------------------------------------------
 Exchange:     0.1957 Hartree-Fock + 1.0000 wB97X-D3 + LR-HF
 Correlation:  1.0000 wB97X-D3
 Using SG-2 standard quadrature grid
 Dispersion:   Grimme D3
 using 16 threads for integral computing
 -------------------------------------------------------
 OpenMP Integral computing Module                
 Release: version 1.0, May 2013, Q-Chem Inc. Pittsburgh 
 -------------------------------------------------------
 using 16 threads for integral computing
 -------------------------------------------------------
 OpenMP Integral computing Module                
 Release: version 1.0, May 2013, Q-Chem Inc. Pittsburgh 
 -------------------------------------------------------
 -------------------------------------------------------
 OpenMP BLAS3 based DFT computing Module                
 Release: version 1.0, May 2013, Q-Chem Inc. Pittsburgh 
 -------------------------------------------------------
 A unrestricted SCF calculation will be
 performed using DIIS
 SCF converges when DIIS error is below 1.0e-08
 ---------------------------------------
  Cycle       Energy         DIIS error
 ---------------------------------------
    1    -269.5693364319      6.79e-05  
    2    -269.5659098877      1.92e-05  
    3    -269.5659120040      2.00e-05  
    4    -269.5659174826      1.97e-06  
    5    -269.5659175803      1.01e-06  
    6    -269.5659176042      2.60e-07  
    7    -269.5659176065      8.66e-08  
    8    -269.5659176067      3.95e-08  
    9    -269.5659176067      6.53e-09  Convergence criterion met
 ---------------------------------------
 SCF time:   CPU 263.09s  wall 20.00s 
<S^2> =          0.000000000
 SCF   energy in the final basis set =     -269.5659176067
 Total energy in the final basis set =     -269.5659176067
 No wavefunction analysis requested
 Calculating analytic gradient of the SCF energy
 Gradient of SCF Energy
            1           2           3           4           5           6
    1  -0.0013001   0.0002152  -0.0005408   0.0007451   0.0002944  -0.0000718
    2   0.0007913  -0.0002724  -0.0003393  -0.0000524   0.0000702  -0.0000394
    3  -0.0008098   0.0002464  -0.0001575   0.0002626   0.0001426   0.0000888
            7           8           9          10          11          12
    1  -0.0000090  -0.0002620  -0.0000605   0.0001849   0.0000833   0.0003137
    2  -0.0000641  -0.0002564   0.0003973   0.0002410   0.0000947  -0.0000278
    3  -0.0000944   0.0007914   0.0001917  -0.0003351   0.0002844  -0.0000886
           13
    1   0.0004076
    2  -0.0005427
    3  -0.0005226
 Max gradient component =       1.300E-03
 RMS gradient           =       4.068E-04
 Gradient time:  CPU 72.02 s  wall 5.55 s
 Geometry Optimization Parameters
   NAtoms,    NIC,     NZ,  NCons,   NDum,   NFix, NCnnct, MaxDiis
       13      98       0       0       0       0       0       0

 Cartesian Hessian Update
 Hessian Updated using BFGS Update


** GEOMETRY OPTIMIZATION IN DELOCALIZED INTERNAL COORDINATES **
   Searching for a Minimum

   Optimization Cycle:   3

                       Coordinates (Angstroms)
     ATOM                X               Y               Z
      1  C         0.6836879599    0.2602414479    0.2029646431
      2  O         1.3586631980   -0.8274455858    0.8471509378
      3  C         0.3025019710   -1.7415562604    0.5073077914
      4  C        -0.4880905349   -0.6370941850   -0.2031824175
      5  O        -1.1318646254    2.4152336862   -1.3756977783
      6  H         0.4506722993    1.0615319899    0.9124658540
      7  H         1.2798512708    0.6704357321   -0.6193468626
      8  H        -0.2517902073    2.2593304259   -1.7210743912
      9  H         0.6627545991   -2.5531604481   -0.1294524518
     10  H        -0.1645321508   -2.1650904385    1.3996326529
     11  H        -0.6222700991   -0.7686774128   -1.2737617835
     12  H        -1.4448132354   -0.3804236335    0.2443503355
     13  H        -1.0033884453    2.5871076817   -0.4418895297
   Point Group: c1    Number of degrees of freedom:    33


   Energy is   -269.565917607

 Hessian Updated using BFGS Update

 33 Hessian modes will be used to form the next step
  Hessian Eigenvalues:
     0.002973    0.004892    0.008456    0.012898    0.023380    0.025268
     0.030567    0.043177    0.045447    0.051746    0.054112    0.062450
     0.065193    0.067684    0.081695    0.084657    0.097740    0.105423
     0.126517    0.141220    0.193443    0.263533    0.275105    0.323554
     0.325941    0.335277    0.336292    0.342942    0.343434    0.354118
     0.363038    0.496861    0.533038

 Minimum Search - Taking Simple RFO Step
 Searching for Lamda that Minimizes Along All modes
 Value Taken    Lamda =  -0.00008637
 Step Taken.  Stepsize is  0.093231

                             Maximum     Tolerance    Cnvgd?
         Gradient           0.000894      0.000100      NO
         Displacement       0.050469      0.000400      NO
         Energy change     -0.000103      0.000000      NO


 New Cartesian Coordinates Obtained by Inverse Iteration

 Displacement from previous Coordinates is:  0.127478
 Adding empirical dispersion correction 
 ----------------------------------------------------------------
 Doing -D3(0) with
 s6  =   1.00000
 s8  =   1.00000
 rs6 =   1.28100
 rs8 =   1.09400
 -D3 energy without 3body term =     -0.0029633682 hartrees
 ----------------------------------------------------------------
             Standard Nuclear Orientation (Angstroms)
    I     Atom           X                Y                Z
 ----------------------------------------------------------------
    1      C       0.6866533803     0.2509291070     0.2055187672
    2      O       1.3621209870    -0.8347875754     0.8486436267
    3      C       0.3072000447    -1.7496159105     0.5130881736
    4      C      -0.4863090439    -0.6477391094    -0.2012785399
    5      O      -1.1369563732     2.4511976985    -1.3852988283
    6      H       0.4504327767     1.0535079662     0.9127014540
    7      H       1.2791677733     0.6644861970    -0.6178787757
    8      H      -0.2594471313     2.2879944960    -1.7335610283
    9      H       0.6654381385    -2.5647311716    -0.1216501404
   10      H      -0.1606154813    -2.1720004213     1.4065344143
   11      H      -0.6192573989    -0.7825834193    -1.2721444720
   12      H      -1.4446239899    -0.3916785171     0.2444383828
   13      H      -1.0124216819     2.6154536597    -0.4496460340
 ----------------------------------------------------------------
 Nuclear Repulsion Energy =   181.6775015166 hartrees
 There are       21 alpha and       21 beta electrons
 Applying Cartesian multipole field
    Component          Value
    ---------          -----
     (2,0,0)        1.00000E-11
     (0,2,0)        2.00000E-11
     (0,0,2)       -3.00000E-11
 Nucleus-field energy     =     0.0000000051 hartrees
 Requested basis set is def2-TZVP
 There are 87 shells and 203 basis functions
 A cutoff of  1.0D-11 yielded   3484 shell pairs
 There are     18918 function pairs (     23812 Cartesian)
 Smallest overlap matrix eigenvalue = 3.06E-04
 Guess MOs from SCF MO coefficient file
 Reading MOs from coefficient file
 Reading MOs from coefficient file

 -----------------------------------------------------------------------
  General SCF calculation program by
  Eric Jon Sundstrom, Paul Horn, Yuezhi Mao, Dmitri Zuev, Alec White,
  David Stuck, Shaama M.S., Shane Yost, Joonho Lee, David Small,
  Daniel Levine, Susi Lehtola, Hugh Burton, Evgeny Epifanovsky
 -----------------------------------------------------------------------
 Exchange:     0.1957 Hartree-Fock + 1.0000 wB97X-D3 + LR-HF
 Correlation:  1.0000 wB97X-D3
 Using SG-2 standard quadrature grid
 Dispersion:   Grimme D3
 using 16 threads for integral computing
 -------------------------------------------------------
 OpenMP Integral computing Module                
 Release: version 1.0, May 2013, Q-Chem Inc. Pittsburgh 
 -------------------------------------------------------
 using 16 threads for integral computing
 -------------------------------------------------------
 OpenMP Integral computing Module                
 Release: version 1.0, May 2013, Q-Chem Inc. Pittsburgh 
 -------------------------------------------------------
 -------------------------------------------------------
 OpenMP BLAS3 based DFT computing Module                
 Release: version 1.0, May 2013, Q-Chem Inc. Pittsburgh 
 -------------------------------------------------------
 A unrestricted SCF calculation will be
 performed using DIIS
 SCF converges when DIIS error is below 1.0e-08
 ---------------------------------------
  Cycle       Energy         DIIS error
 ---------------------------------------
    1    -269.5659489491      5.71e-05  
    2    -269.5659711185      1.34e-05  
    3    -269.5659727060      1.43e-05  
    4    -269.5659755244      1.58e-06  
    5    -269.5659756147      8.31e-07  
    6    -269.5659756337      3.15e-07  
    7    -269.5659756367      9.67e-08  
    8    -269.5659756370      3.84e-08  
    9    -269.5659756370      5.30e-09  Convergence criterion met
 ---------------------------------------
 SCF time:   CPU 263.59s  wall 19.00s 
<S^2> =          0.000000000
 SCF   energy in the final basis set =     -269.5659756370
 Total energy in the final basis set =     -269.5659756370
 No wavefunction analysis requested
 Calculating analytic gradient of the SCF energy
 Gradient of SCF Energy
            1           2           3           4           5           6
    1   0.0002629  -0.0004278   0.0006808   0.0000043   0.0009441  -0.0002003
    2  -0.0001538  -0.0001494   0.0005113  -0.0000146   0.0002568   0.0002057
    3   0.0002682  -0.0001307   0.0003196  -0.0001498   0.0004389  -0.0001779
            7           8           9          10          11          12
    1  -0.0002383  -0.0004090  -0.0001272  -0.0001084  -0.0001060  -0.0000617
    2   0.0002553  -0.0003134  -0.0000636  -0.0001225   0.0000022   0.0000129
    3  -0.0001662   0.0000798  -0.0000293  -0.0001102  -0.0000174  -0.0000868
           13
    1  -0.0002133
    2  -0.0004270
    3  -0.0002382
 Max gradient component =       9.441E-04
 RMS gradient           =       2.904E-04
 Gradient time:  CPU 73.07 s  wall 5.39 s
 Geometry Optimization Parameters
   NAtoms,    NIC,     NZ,  NCons,   NDum,   NFix, NCnnct, MaxDiis
       13      98       0       0       0       0       0       0

 Cartesian Hessian Update
 Hessian Updated using BFGS Update


** GEOMETRY OPTIMIZATION IN DELOCALIZED INTERNAL COORDINATES **
   Searching for a Minimum

   Optimization Cycle:   4

                       Coordinates (Angstroms)
     ATOM                X               Y               Z
      1  C         0.6866533803    0.2509291070    0.2055187672
      2  O         1.3621209870   -0.8347875754    0.8486436267
      3  C         0.3072000447   -1.7496159105    0.5130881736
      4  C        -0.4863090439   -0.6477391094   -0.2012785399
      5  O        -1.1369563732    2.4511976985   -1.3852988283
      6  H         0.4504327767    1.0535079662    0.9127014540
      7  H         1.2791677733    0.6644861970   -0.6178787757
      8  H        -0.2594471313    2.2879944960   -1.7335610283
      9  H         0.6654381385   -2.5647311716   -0.1216501404
     10  H        -0.1606154813   -2.1720004213    1.4065344143
     11  H        -0.6192573989   -0.7825834193   -1.2721444720
     12  H        -1.4446239899   -0.3916785171    0.2444383828
     13  H        -1.0124216819    2.6154536597   -0.4496460340
   Point Group: c1    Number of degrees of freedom:    33


   Energy is   -269.565975637

 Hessian Updated using BFGS Update

 33 Hessian modes will be used to form the next step
  Hessian Eigenvalues:
     0.002968    0.004203    0.005142    0.012695    0.024820    0.025351
     0.030581    0.043354    0.045448    0.051604    0.057798    0.062452
     0.066149    0.067695    0.081227    0.084656    0.097725    0.105397
     0.126511    0.149082    0.194584    0.263808    0.285767    0.323788
     0.325946    0.335276    0.338947    0.342950    0.351193    0.353724
     0.363923    0.496873    0.521876

 Minimum Search - Taking Simple RFO Step
 Searching for Lamda that Minimizes Along All modes
 Value Taken    Lamda =  -0.00004280
 Step Taken.  Stepsize is  0.091768

                             Maximum     Tolerance    Cnvgd?
         Gradient           0.000497      0.000100      NO
         Displacement       0.049040      0.000400      NO
         Energy change     -0.000058      0.000000      NO


 New Cartesian Coordinates Obtained by Inverse Iteration

 Displacement from previous Coordinates is:  0.115565
 Adding empirical dispersion correction 
 ----------------------------------------------------------------
 Doing -D3(0) with
 s6  =   1.00000
 s8  =   1.00000
 rs6 =   1.28100
 rs8 =   1.09400
 -D3 energy without 3body term =     -0.0029383523 hartrees
 ----------------------------------------------------------------
             Standard Nuclear Orientation (Angstroms)
    I     Atom           X                Y                Z
 ----------------------------------------------------------------
    1      C       0.6891060351     0.2425280366     0.2086375865
    2      O       1.3650257822    -0.8428194310     0.8504259868
    3      C       0.3100806789    -1.7579717094     0.5170744258
    4      C      -0.4840564411    -0.6565705384    -0.1985072936
    5      O      -1.1448973491     2.4804405512    -1.3957706078
    6      H       0.4508556416     1.0453819302     0.9148909691
    7      H       1.2798063086     0.6580615306    -0.6149706355
    8      H      -0.2679737181     2.3140849672    -1.7448363674
    9      H       0.6679969833    -2.5745999511    -0.1162890722
   10      H      -0.1572210818    -2.1787950482     1.4118543359
   11      H      -0.6152434024    -0.7921043856    -1.2696605379
   12      H      -1.4429360176    -0.4008025461     0.2464480890
   13      H      -1.0191614198     2.6435995938    -0.4598298784
 ----------------------------------------------------------------
 Nuclear Repulsion Energy =   181.2277575647 hartrees
 There are       21 alpha and       21 beta electrons
 Applying Cartesian multipole field
    Component          Value
    ---------          -----
     (2,0,0)        1.00000E-11
     (0,2,0)        2.00000E-11
     (0,0,2)       -3.00000E-11
 Nucleus-field energy     =     0.0000000052 hartrees
 Requested basis set is def2-TZVP
 There are 87 shells and 203 basis functions
 A cutoff of  1.0D-11 yielded   3478 shell pairs
 There are     18882 function pairs (     23769 Cartesian)
 Smallest overlap matrix eigenvalue = 3.08E-04
 Guess MOs from SCF MO coefficient file
 Reading MOs from coefficient file
 Reading MOs from coefficient file

 -----------------------------------------------------------------------
  General SCF calculation program by
  Eric Jon Sundstrom, Paul Horn, Yuezhi Mao, Dmitri Zuev, Alec White,
  David Stuck, Shaama M.S., Shane Yost, Joonho Lee, David Small,
  Daniel Levine, Susi Lehtola, Hugh Burton, Evgeny Epifanovsky
 -----------------------------------------------------------------------
 Exchange:     0.1957 Hartree-Fock + 1.0000 wB97X-D3 + LR-HF
 Correlation:  1.0000 wB97X-D3
 Using SG-2 standard quadrature grid
 Dispersion:   Grimme D3
 using 16 threads for integral computing
 -------------------------------------------------------
 OpenMP Integral computing Module                
 Release: version 1.0, May 2013, Q-Chem Inc. Pittsburgh 
 -------------------------------------------------------
 using 16 threads for integral computing
 -------------------------------------------------------
 OpenMP Integral computing Module                
 Release: version 1.0, May 2013, Q-Chem Inc. Pittsburgh 
 -------------------------------------------------------
 -------------------------------------------------------
 OpenMP BLAS3 based DFT computing Module                
 Release: version 1.0, May 2013, Q-Chem Inc. Pittsburgh 
 -------------------------------------------------------
 A unrestricted SCF calculation will be
 performed using DIIS
 SCF converges when DIIS error is below 1.0e-08
 ---------------------------------------
  Cycle       Energy         DIIS error
 ---------------------------------------
    1    -269.5651209200      2.92e-05  
    2    -269.5660053606      6.60e-06  
    3    -269.5660059743      6.33e-06  
    4    -269.5660065091      9.15e-07  
    5    -269.5660065333      4.00e-07  
    6    -269.5660065381      2.21e-07  
    7    -269.5660065391      5.08e-08  
    8    -269.5660065392      1.99e-08  
    9    -269.5660065392      3.52e-09  Convergence criterion met
 ---------------------------------------
 SCF time:   CPU 262.05s  wall 20.00s 
<S^2> =          0.000000000
 SCF   energy in the final basis set =     -269.5660065392
 Total energy in the final basis set =     -269.5660065392
 No wavefunction analysis requested
 Calculating analytic gradient of the SCF energy
 Gradient of SCF Energy
            1           2           3           4           5           6
    1   0.0009184  -0.0007223   0.0008836  -0.0002511   0.0005448  -0.0003082
    2  -0.0005580  -0.0001186   0.0005449   0.0000344   0.0004195   0.0003333
    3   0.0006448  -0.0003257   0.0003610  -0.0001709   0.0002106  -0.0003394
            7           8           9          10          11          12
    1  -0.0003397  -0.0001261  -0.0000540  -0.0001367  -0.0000554  -0.0001324
    2   0.0003592  -0.0003520  -0.0001990  -0.0001883   0.0000189   0.0000351
    3  -0.0001324  -0.0000516  -0.0000776   0.0000367  -0.0001056  -0.0000461
           13
    1  -0.0002210
    2  -0.0003296
    3  -0.0000039
 Max gradient component =       9.184E-04
 RMS gradient           =       3.600E-04
 Gradient time:  CPU 72.55 s  wall 5.51 s
 Geometry Optimization Parameters
   NAtoms,    NIC,     NZ,  NCons,   NDum,   NFix, NCnnct, MaxDiis
       13      98       0       0       0       0       0       0

 Cartesian Hessian Update
 Hessian Updated using BFGS Update


** GEOMETRY OPTIMIZATION IN DELOCALIZED INTERNAL COORDINATES **
   Searching for a Minimum

   Optimization Cycle:   5

                       Coordinates (Angstroms)
     ATOM                X               Y               Z
      1  C         0.6891060351    0.2425280366    0.2086375865
      2  O         1.3650257822   -0.8428194310    0.8504259868
      3  C         0.3100806789   -1.7579717094    0.5170744258
      4  C        -0.4840564411   -0.6565705384   -0.1985072936
      5  O        -1.1448973491    2.4804405512   -1.3957706078
      6  H         0.4508556416    1.0453819302    0.9148909691
      7  H         1.2798063086    0.6580615306   -0.6149706355
      8  H        -0.2679737181    2.3140849672   -1.7448363674
      9  H         0.6679969833   -2.5745999511   -0.1162890722
     10  H        -0.1572210818   -2.1787950482    1.4118543359
     11  H        -0.6152434024   -0.7921043856   -1.2696605379
     12  H        -1.4429360176   -0.4008025461    0.2464480890
     13  H        -1.0191614198    2.6435995938   -0.4598298784
   Point Group: c1    Number of degrees of freedom:    33


   Energy is   -269.566006539

 Hessian Updated using BFGS Update

 33 Hessian modes will be used to form the next step
  Hessian Eigenvalues:
     0.002396    0.003045    0.005034    0.012660    0.024425    0.025342
     0.030585    0.043349    0.045455    0.052614    0.059054    0.062472
     0.065307    0.067713    0.081435    0.084768    0.097730    0.105415
     0.126652    0.146874    0.195707    0.263979    0.287884    0.323764
     0.326008    0.335274    0.339475    0.342950    0.349069    0.354025
     0.364070    0.496981    0.521478

 Minimum Search - Taking Simple RFO Step
 Searching for Lamda that Minimizes Along All modes
 Value Taken    Lamda =  -0.00003143
 Step Taken.  Stepsize is  0.095600

                             Maximum     Tolerance    Cnvgd?
         Gradient           0.000526      0.000100      NO
         Displacement       0.051241      0.000400      NO
         Energy change     -0.000031      0.000000      NO


 New Cartesian Coordinates Obtained by Inverse Iteration

 Displacement from previous Coordinates is:  0.100508
 Adding empirical dispersion correction 
 ----------------------------------------------------------------
 Doing -D3(0) with
 s6  =   1.00000
 s8  =   1.00000
 rs6 =   1.28100
 rs8 =   1.09400
 -D3 energy without 3body term =     -0.0029157033 hartrees
 ----------------------------------------------------------------
             Standard Nuclear Orientation (Angstroms)
    I     Atom           X                Y                Z
 ----------------------------------------------------------------
    1      C       0.6926379838     0.2352386185     0.2118294427
    2      O       1.3684535460    -0.8510408440     0.8523453821
    3      C       0.3110928133    -1.7649021367     0.5200813656
    4      C      -0.4806514160    -0.6629122907    -0.1968823422
    5      O      -1.1558435851     2.5011545277    -1.4040792293
    6      H       0.4542919990     1.0368084134     0.9193643298
    7      H       1.2834349708     0.6519134352    -0.6110238551
    8      H      -0.2791579010     2.3364372811    -1.7552657030
    9      H       0.6681060474    -2.5829900155    -0.1116709230
   10      H      -0.1568384700    -2.1827233658     1.4158492461
   11      H      -0.6092906112    -0.7991188339    -1.2682578508
   12      H      -1.4400169278    -0.4066734038     0.2465754071
   13      H      -1.0248364492     2.6692416143    -0.4693982699
 ----------------------------------------------------------------
 Nuclear Repulsion Energy =   180.8549807692 hartrees
 There are       21 alpha and       21 beta electrons
 Applying Cartesian multipole field
    Component          Value
    ---------          -----
     (2,0,0)        1.00000E-11
     (0,2,0)        2.00000E-11
     (0,0,2)       -3.00000E-11
 Nucleus-field energy     =     0.0000000053 hartrees
 Requested basis set is def2-TZVP
 There are 87 shells and 203 basis functions
 A cutoff of  1.0D-11 yielded   3470 shell pairs
 There are     18844 function pairs (     23725 Cartesian)
 Smallest overlap matrix eigenvalue = 3.09E-04
 Guess MOs from SCF MO coefficient file
 Reading MOs from coefficient file
 Reading MOs from coefficient file

 -----------------------------------------------------------------------
  General SCF calculation program by
  Eric Jon Sundstrom, Paul Horn, Yuezhi Mao, Dmitri Zuev, Alec White,
  David Stuck, Shaama M.S., Shane Yost, Joonho Lee, David Small,
  Daniel Levine, Susi Lehtola, Hugh Burton, Evgeny Epifanovsky
 -----------------------------------------------------------------------
 Exchange:     0.1957 Hartree-Fock + 1.0000 wB97X-D3 + LR-HF
 Correlation:  1.0000 wB97X-D3
 Using SG-2 standard quadrature grid
 Dispersion:   Grimme D3
 using 16 threads for integral computing
 -------------------------------------------------------
 OpenMP Integral computing Module                
 Release: version 1.0, May 2013, Q-Chem Inc. Pittsburgh 
 -------------------------------------------------------
 using 16 threads for integral computing
 -------------------------------------------------------
 OpenMP Integral computing Module                
 Release: version 1.0, May 2013, Q-Chem Inc. Pittsburgh 
 -------------------------------------------------------
 -------------------------------------------------------
 OpenMP BLAS3 based DFT computing Module                
 Release: version 1.0, May 2013, Q-Chem Inc. Pittsburgh 
 -------------------------------------------------------
 A unrestricted SCF calculation will be
 performed using DIIS
 SCF converges when DIIS error is below 1.0e-08
 ---------------------------------------
  Cycle       Energy         DIIS error
 ---------------------------------------
    1    -269.5646060005      3.18e-05  
    2    -269.5660268628      7.72e-06  
    3    -269.5660278009      5.34e-06  
    4    -269.5660281597      1.44e-06  
    5    -269.5660281941      3.29e-07  
    6    -269.5660281972      1.60e-07  
    7    -269.5660281976      4.40e-08  
    8    -269.5660281977      1.21e-08  
    9    -269.5660281977      3.80e-09  Convergence criterion met
 ---------------------------------------
 SCF time:   CPU 260.70s  wall 20.00s 
<S^2> =          0.000000000
 SCF   energy in the final basis set =     -269.5660281977
 Total energy in the final basis set =     -269.5660281977
 No wavefunction analysis requested
 Calculating analytic gradient of the SCF energy
 Gradient of SCF Energy
            1           2           3           4           5           6
    1   0.0008732  -0.0004052   0.0004385  -0.0002861  -0.0001040  -0.0002340
    2  -0.0006584   0.0001114   0.0002877   0.0000344   0.0005367   0.0002552
    3   0.0006789  -0.0002088   0.0002007  -0.0002152  -0.0002376  -0.0002941
            7           8           9          10          11          12
    1  -0.0003178   0.0001533   0.0000006  -0.0000959   0.0000099  -0.0000649
    2   0.0003069  -0.0003379  -0.0001211  -0.0001134  -0.0000160  -0.0000114
    3  -0.0001115   0.0001005  -0.0000599   0.0000496  -0.0000973   0.0000129
           13
    1   0.0000323
    2  -0.0002740
    3   0.0001818
 Max gradient component =       8.732E-04
 RMS gradient           =       2.955E-04
 Gradient time:  CPU 72.00 s  wall 5.86 s
 Geometry Optimization Parameters
   NAtoms,    NIC,     NZ,  NCons,   NDum,   NFix, NCnnct, MaxDiis
       13      98       0       0       0       0       0       0

 Cartesian Hessian Update
 Hessian Updated using BFGS Update


** GEOMETRY OPTIMIZATION IN DELOCALIZED INTERNAL COORDINATES **
   Searching for a Minimum

   Optimization Cycle:   6

                       Coordinates (Angstroms)
     ATOM                X               Y               Z
      1  C         0.6926379838    0.2352386185    0.2118294427
      2  O         1.3684535460   -0.8510408440    0.8523453821
      3  C         0.3110928133   -1.7649021367    0.5200813656
      4  C        -0.4806514160   -0.6629122907   -0.1968823422
      5  O        -1.1558435851    2.5011545277   -1.4040792293
      6  H         0.4542919990    1.0368084134    0.9193643298
      7  H         1.2834349708    0.6519134352   -0.6110238551
      8  H        -0.2791579010    2.3364372811   -1.7552657030
      9  H         0.6681060474   -2.5829900155   -0.1116709230
     10  H        -0.1568384700   -2.1827233658    1.4158492461
     11  H        -0.6092906112   -0.7991188339   -1.2682578508
     12  H        -1.4400169278   -0.4066734038    0.2465754071
     13  H        -1.0248364492    2.6692416143   -0.4693982699
   Point Group: c1    Number of degrees of freedom:    33


   Energy is   -269.566028198

 Hessian Updated using BFGS Update

 33 Hessian modes will be used to form the next step
  Hessian Eigenvalues:
     0.001668    0.003054    0.005021    0.013084    0.021961    0.025332
     0.030594    0.043422    0.045456    0.052846    0.053063    0.062465
     0.064929    0.067711    0.081571    0.084912    0.097738    0.105436
     0.126611    0.154985    0.196072    0.264180    0.281943    0.323894
     0.326008    0.335273    0.338354    0.342905    0.343161    0.351948
     0.364000    0.496983    0.529477

 Minimum Search - Taking Simple RFO Step
 Searching for Lamda that Minimizes Along All modes
 Value Taken    Lamda =  -0.00002320
 Step Taken.  Stepsize is  0.087686

                             Maximum     Tolerance    Cnvgd?
         Gradient           0.000458      0.000100      NO
         Displacement       0.048778      0.000400      NO
         Energy change     -0.000022      0.000000      NO


 New Cartesian Coordinates Obtained by Inverse Iteration

 Displacement from previous Coordinates is:  0.073369
 Adding empirical dispersion correction 
 ----------------------------------------------------------------
 Doing -D3(0) with
 s6  =   1.00000
 s8  =   1.00000
 rs6 =   1.28100
 rs8 =   1.09400
 -D3 energy without 3body term =     -0.0029050604 hartrees
 ----------------------------------------------------------------
             Standard Nuclear Orientation (Angstroms)
    I     Atom           X                Y                Z
 ----------------------------------------------------------------
    1      C       0.6983506794     0.2307775159     0.2159600590
    2      O       1.3713079160    -0.8594123346     0.8543392670
    3      C       0.3096310504    -1.7691110178     0.5206752211
    4      C      -0.4763864222    -0.6632980479    -0.1959266941
    5      O      -1.1683563113     2.5052722409    -1.4088733794
    6      H       0.4614306627     1.0301567918     0.9262918229
    7      H       1.2915764135     0.6477829879    -0.6048576563
    8      H      -0.2920015956     2.3478177853    -1.7645364770
    9      H       0.6645736602    -2.5881375230    -0.1106221814
   10      H      -0.1601220446    -2.1843033959     1.4164857277
   11      H      -0.6024296431    -0.7977693642    -1.2677305285
   12      H      -1.4359119833    -0.4046501604     0.2455300145
   13      H      -1.0302803823     2.6853075217    -0.4772681953
 ----------------------------------------------------------------
 Nuclear Repulsion Energy =   180.6549140693 hartrees
 There are       21 alpha and       21 beta electrons
 Applying Cartesian multipole field
    Component          Value
    ---------          -----
     (2,0,0)        1.00000E-11
     (0,2,0)        2.00000E-11
     (0,0,2)       -3.00000E-11
 Nucleus-field energy     =     0.0000000053 hartrees
 Requested basis set is def2-TZVP
 There are 87 shells and 203 basis functions
 A cutoff of  1.0D-11 yielded   3469 shell pairs
 There are     18829 function pairs (     23707 Cartesian)
 Smallest overlap matrix eigenvalue = 3.10E-04
 Guess MOs from SCF MO coefficient file
 Reading MOs from coefficient file
 Reading MOs from coefficient file

 -----------------------------------------------------------------------
  General SCF calculation program by
  Eric Jon Sundstrom, Paul Horn, Yuezhi Mao, Dmitri Zuev, Alec White,
  David Stuck, Shaama M.S., Shane Yost, Joonho Lee, David Small,
  Daniel Levine, Susi Lehtola, Hugh Burton, Evgeny Epifanovsky
 -----------------------------------------------------------------------
 Exchange:     0.1957 Hartree-Fock + 1.0000 wB97X-D3 + LR-HF
 Correlation:  1.0000 wB97X-D3
 Using SG-2 standard quadrature grid
 Dispersion:   Grimme D3
 using 16 threads for integral computing
 -------------------------------------------------------
 OpenMP Integral computing Module                
 Release: version 1.0, May 2013, Q-Chem Inc. Pittsburgh 
 -------------------------------------------------------
 using 16 threads for integral computing
 -------------------------------------------------------
 OpenMP Integral computing Module                
 Release: version 1.0, May 2013, Q-Chem Inc. Pittsburgh 
 -------------------------------------------------------
 -------------------------------------------------------
 OpenMP BLAS3 based DFT computing Module                
 Release: version 1.0, May 2013, Q-Chem Inc. Pittsburgh 
 -------------------------------------------------------
 A unrestricted SCF calculation will be
 performed using DIIS
 SCF converges when DIIS error is below 1.0e-08
 ---------------------------------------
  Cycle       Energy         DIIS error
 ---------------------------------------
    1    -269.5644312854      5.59e-05  
    2    -269.5660409467      1.26e-05  
    3    -269.5660437784      7.88e-06  
    4    -269.5660446450      2.59e-06  
    5    -269.5660447616      7.08e-07  
    6    -269.5660447746      3.09e-07  
    7    -269.5660447769      8.11e-08  
    8    -269.5660447772      4.14e-08  
    9    -269.5660447772      7.40e-09  Convergence criterion met
 ---------------------------------------
 SCF time:   CPU 259.21s  wall 20.00s 
<S^2> =          0.000000000
 SCF   energy in the final basis set =     -269.5660447772
 Total energy in the final basis set =     -269.5660447772
 No wavefunction analysis requested
 Calculating analytic gradient of the SCF energy
 Gradient of SCF Energy
            1           2           3           4           5           6
    1   0.0005244  -0.0000178  -0.0001370  -0.0001214  -0.0005369  -0.0002023
    2  -0.0004177   0.0001793  -0.0001593   0.0000574   0.0005475   0.0001601
    3   0.0004304  -0.0000089  -0.0000414  -0.0001116  -0.0005209  -0.0002073
            7           8           9          10          11          12
    1  -0.0002216   0.0002560   0.0000695   0.0000004   0.0000882   0.0000145
    2   0.0001826  -0.0002488   0.0000067   0.0000140  -0.0000160  -0.0000276
    3  -0.0000923   0.0002673   0.0000017   0.0000317  -0.0000255   0.0000393
           13
    1   0.0002841
    2  -0.0002782
    3   0.0002375
 Max gradient component =       5.475E-04
 RMS gradient           =       2.393E-04
 Gradient time:  CPU 71.60 s  wall 5.09 s
 Geometry Optimization Parameters
   NAtoms,    NIC,     NZ,  NCons,   NDum,   NFix, NCnnct, MaxDiis
       13      98       0       0       0       0       0       0

 Cartesian Hessian Update
 Hessian Updated using BFGS Update


** GEOMETRY OPTIMIZATION IN DELOCALIZED INTERNAL COORDINATES **
   Searching for a Minimum

   Optimization Cycle:   7

                       Coordinates (Angstroms)
     ATOM                X               Y               Z
      1  C         0.6983506794    0.2307775159    0.2159600590
      2  O         1.3713079160   -0.8594123346    0.8543392670
      3  C         0.3096310504   -1.7691110178    0.5206752211
      4  C        -0.4763864222   -0.6632980479   -0.1959266941
      5  O        -1.1683563113    2.5052722409   -1.4088733794
      6  H         0.4614306627    1.0301567918    0.9262918229
      7  H         1.2915764135    0.6477829879   -0.6048576563
      8  H        -0.2920015956    2.3478177853   -1.7645364770
      9  H         0.6645736602   -2.5881375230   -0.1106221814
     10  H        -0.1601220446   -2.1843033959    1.4164857277
     11  H        -0.6024296431   -0.7977693642   -1.2677305285
     12  H        -1.4359119833   -0.4046501604    0.2455300145
     13  H        -1.0302803823    2.6853075217   -0.4772681953
   Point Group: c1    Number of degrees of freedom:    33


   Energy is   -269.566044777

 Hessian Updated using BFGS Update

 33 Hessian modes will be used to form the next step
  Hessian Eigenvalues:
     0.001043    0.003096    0.005008    0.013143    0.015974    0.025331
     0.030709    0.043074    0.045454    0.046519    0.054241    0.062476
     0.065220    0.067715    0.081566    0.084883    0.097790    0.105423
     0.126646    0.161859    0.197397    0.264299    0.285878    0.323838
     0.326021    0.335276    0.339404    0.342981    0.351261    0.355549
     0.363131    0.497060    0.528387

 Minimum Search - Taking Simple RFO Step
 Searching for Lamda that Minimizes Along All modes
 Value Taken    Lamda =  -0.00003331
 Step Taken.  Stepsize is  0.135706

                             Maximum     Tolerance    Cnvgd?
         Gradient           0.000499      0.000100      NO
         Displacement       0.076205      0.000400      NO
         Energy change     -0.000017      0.000000      NO


 New Cartesian Coordinates Obtained by Inverse Iteration

 Displacement from previous Coordinates is:  0.118281
 Adding empirical dispersion correction 
 ----------------------------------------------------------------
 Doing -D3(0) with
 s6  =   1.00000
 s8  =   1.00000
 rs6 =   1.28100
 rs8 =   1.09400
 -D3 energy without 3body term =     -0.0029017102 hartrees
 ----------------------------------------------------------------
             Standard Nuclear Orientation (Angstroms)
    I     Atom           X                Y                Z
 ----------------------------------------------------------------
    1      C       0.7098196663     0.2267028259     0.2243938361
    2      O       1.3752563827    -0.8724992855     0.8575658607
    3      C       0.3053520788    -1.7721605670     0.5188616961
    4      C      -0.4691988961    -0.6573033943    -0.1949327279
    5      O      -1.1887836450     2.4936998771    -1.4124807055
    6      H       0.4770199156     1.0217949251     0.9406477591
    7      H       1.3090405813     0.6440389321    -0.5916666027
    8      H      -0.3141849424     2.3517544600    -1.7789914522
    9      H       0.6548872227    -2.5919465324    -0.1139827558
   10      H      -0.1690464640    -2.1850812653     1.4130086351
   11      H      -0.5916923349    -0.7863639061    -1.2677254356
   12      H      -1.4286625074    -0.3935617927     0.2433125493
   13      H      -1.0384250577     2.7013587229    -0.4885436565
 ----------------------------------------------------------------
 Nuclear Repulsion Energy =   180.5321977938 hartrees
 There are       21 alpha and       21 beta electrons
 Applying Cartesian multipole field
    Component          Value
    ---------          -----
     (2,0,0)        1.00000E-11
     (0,2,0)        2.00000E-11
     (0,0,2)       -3.00000E-11
 Nucleus-field energy     =     0.0000000053 hartrees
 Requested basis set is def2-TZVP
 There are 87 shells and 203 basis functions
 A cutoff of  1.0D-11 yielded   3465 shell pairs
 There are     18821 function pairs (     23699 Cartesian)
 Smallest overlap matrix eigenvalue = 3.11E-04
 Guess MOs from SCF MO coefficient file
 Reading MOs from coefficient file
 Reading MOs from coefficient file

 -----------------------------------------------------------------------
  General SCF calculation program by
  Eric Jon Sundstrom, Paul Horn, Yuezhi Mao, Dmitri Zuev, Alec White,
  David Stuck, Shaama M.S., Shane Yost, Joonho Lee, David Small,
  Daniel Levine, Susi Lehtola, Hugh Burton, Evgeny Epifanovsky
 -----------------------------------------------------------------------
 Exchange:     0.1957 Hartree-Fock + 1.0000 wB97X-D3 + LR-HF
 Correlation:  1.0000 wB97X-D3
 Using SG-2 standard quadrature grid
 Dispersion:   Grimme D3
 using 16 threads for integral computing
 -------------------------------------------------------
 OpenMP Integral computing Module                
 Release: version 1.0, May 2013, Q-Chem Inc. Pittsburgh 
 -------------------------------------------------------
 using 16 threads for integral computing
 -------------------------------------------------------
 OpenMP Integral computing Module                
 Release: version 1.0, May 2013, Q-Chem Inc. Pittsburgh 
 -------------------------------------------------------
 -------------------------------------------------------
 OpenMP BLAS3 based DFT computing Module                
 Release: version 1.0, May 2013, Q-Chem Inc. Pittsburgh 
 -------------------------------------------------------
 A unrestricted SCF calculation will be
 performed using DIIS
 SCF converges when DIIS error is below 1.0e-08
 ---------------------------------------
  Cycle       Energy         DIIS error
 ---------------------------------------
    1    -269.5633760941      1.21e-04  
    2    -269.5660529230      2.59e-05  
    3    -269.5660668715      1.47e-05  
    4    -269.5660701157      5.13e-06  
    5    -269.5660706118      1.48e-06  
    6    -269.5660706704      6.21e-07  
    7    -269.5660706807      1.75e-07  
    8    -269.5660706819      9.35e-08  
    9    -269.5660706821      1.65e-08  
   10    -269.5660706821      2.35e-09  Convergence criterion met
 ---------------------------------------
 SCF time:   CPU 288.79s  wall 22.00s 
<S^2> =          0.000000000
 SCF   energy in the final basis set =     -269.5660706821
 Total energy in the final basis set =     -269.5660706821
 No wavefunction analysis requested
 Calculating analytic gradient of the SCF energy
 Gradient of SCF Energy
            1           2           3           4           5           6
    1  -0.0000702   0.0005341  -0.0007599   0.0000985  -0.0008845  -0.0000985
    2  -0.0000041   0.0002394  -0.0005590   0.0000487   0.0005057  -0.0000256
    3   0.0000299   0.0002431  -0.0003274   0.0000654  -0.0006483  -0.0000289
            7           8           9          10          11          12
    1  -0.0000521   0.0003524   0.0001074   0.0000967   0.0001376   0.0000805
    2  -0.0000140  -0.0001886   0.0001621   0.0001510  -0.0000194  -0.0000510
    3  -0.0000366   0.0004670   0.0000691  -0.0000203   0.0000425   0.0000323
           13
    1   0.0004579
    2  -0.0002451
    3   0.0001120
 Max gradient component =       8.845E-04
 RMS gradient           =       3.064E-04
 Gradient time:  CPU 71.93 s  wall 5.27 s
 Geometry Optimization Parameters
   NAtoms,    NIC,     NZ,  NCons,   NDum,   NFix, NCnnct, MaxDiis
       13      98       0       0       0       0       0       0

 Cartesian Hessian Update
 Hessian Updated using BFGS Update


** GEOMETRY OPTIMIZATION IN DELOCALIZED INTERNAL COORDINATES **
   Searching for a Minimum

   Optimization Cycle:   8

                       Coordinates (Angstroms)
     ATOM                X               Y               Z
      1  C         0.7098196663    0.2267028259    0.2243938361
      2  O         1.3752563827   -0.8724992855    0.8575658607
      3  C         0.3053520788   -1.7721605670    0.5188616961
      4  C        -0.4691988961   -0.6573033943   -0.1949327279
      5  O        -1.1887836450    2.4936998771   -1.4124807055
      6  H         0.4770199156    1.0217949251    0.9406477591
      7  H         1.3090405813    0.6440389321   -0.5916666027
      8  H        -0.3141849424    2.3517544600   -1.7789914522
      9  H         0.6548872227   -2.5919465324   -0.1139827558
     10  H        -0.1690464640   -2.1850812653    1.4130086351
     11  H        -0.5916923349   -0.7863639061   -1.2677254356
     12  H        -1.4286625074   -0.3935617927    0.2433125493
     13  H        -1.0384250577    2.7013587229   -0.4885436565
   Point Group: c1    Number of degrees of freedom:    33


   Energy is   -269.566070682

 Hessian Updated using BFGS Update

 33 Hessian modes will be used to form the next step
  Hessian Eigenvalues:
     0.000675    0.003107    0.005002    0.010487    0.014695    0.025357
     0.030830    0.042703    0.045383    0.045510    0.054670    0.062498
     0.065269    0.067714    0.081823    0.084910    0.097808    0.105417
     0.126679    0.159337    0.195776    0.264307    0.291792    0.323813
     0.326022    0.335277    0.339806    0.342981    0.351431    0.362663
     0.376112    0.497164    0.524451

 Minimum Search - Taking Simple RFO Step
 Searching for Lamda that Minimizes Along All modes
 Value Taken    Lamda =  -0.00003670
 Step Taken.  Stepsize is  0.174836

                             Maximum     Tolerance    Cnvgd?
         Gradient           0.000710      0.000100      NO
         Displacement       0.098806      0.000400      NO
         Energy change     -0.000026      0.000000      NO


 New Cartesian Coordinates Obtained by Inverse Iteration

 Displacement from previous Coordinates is:  0.176234
 Adding empirical dispersion correction 
 ----------------------------------------------------------------
 Doing -D3(0) with
 s6  =   1.00000
 s8  =   1.00000
 rs6 =   1.28100
 rs8 =   1.09400
 -D3 energy without 3body term =     -0.0029095784 hartrees
 ----------------------------------------------------------------
             Standard Nuclear Orientation (Angstroms)
    I     Atom           X                Y                Z
 ----------------------------------------------------------------
    1      C       0.7275289868     0.2237378316     0.2363204066
    2      O       1.3790762024    -0.8894500687     0.8617545545
    3      C       0.2978376764    -1.7727067377     0.5147207442
    4      C      -0.4589476309    -0.6437720318    -0.1950625318
    5      O      -1.2152366588     2.4628518684    -1.4114417638
    6      H       0.5012474870     1.0131341805     0.9608209604
    7      H       1.3357445831     0.6417611620    -0.5725572839
    8      H      -0.3455488635     2.3452114414    -1.7973279862
    9      H       0.6384073496    -2.5937727122    -0.1211580746
   10      H      -0.1848933615    -2.1835646552     1.4052836171
   11      H      -0.5766044259    -0.7641383093    -1.2693709400
   12      H      -1.4180846975    -0.3713571015     0.2382975218
   13      H      -1.0491446471     2.7124981322    -0.5008122240
 ----------------------------------------------------------------
 Nuclear Repulsion Energy =   180.5565778446 hartrees
 There are       21 alpha and       21 beta electrons
 Applying Cartesian multipole field
    Component          Value
    ---------          -----
     (2,0,0)        1.00000E-11
     (0,2,0)        2.00000E-11
     (0,0,2)       -3.00000E-11
 Nucleus-field energy     =     0.0000000052 hartrees
 Requested basis set is def2-TZVP
 There are 87 shells and 203 basis functions
 A cutoff of  1.0D-11 yielded   3466 shell pairs
 There are     18834 function pairs (     23715 Cartesian)
 Smallest overlap matrix eigenvalue = 3.12E-04
 Guess MOs from SCF MO coefficient file
 Reading MOs from coefficient file
 Reading MOs from coefficient file

 -----------------------------------------------------------------------
  General SCF calculation program by
  Eric Jon Sundstrom, Paul Horn, Yuezhi Mao, Dmitri Zuev, Alec White,
  David Stuck, Shaama M.S., Shane Yost, Joonho Lee, David Small,
  Daniel Levine, Susi Lehtola, Hugh Burton, Evgeny Epifanovsky
 -----------------------------------------------------------------------
 Exchange:     0.1957 Hartree-Fock + 1.0000 wB97X-D3 + LR-HF
 Correlation:  1.0000 wB97X-D3
 Using SG-2 standard quadrature grid
 Dispersion:   Grimme D3
 using 16 threads for integral computing
 -------------------------------------------------------
 OpenMP Integral computing Module                
 Release: version 1.0, May 2013, Q-Chem Inc. Pittsburgh 
 -------------------------------------------------------
 using 16 threads for integral computing
 -------------------------------------------------------
 OpenMP Integral computing Module                
 Release: version 1.0, May 2013, Q-Chem Inc. Pittsburgh 
 -------------------------------------------------------
 -------------------------------------------------------
 OpenMP BLAS3 based DFT computing Module                
 Release: version 1.0, May 2013, Q-Chem Inc. Pittsburgh 
 -------------------------------------------------------
 A unrestricted SCF calculation will be
 performed using DIIS
 SCF converges when DIIS error is below 1.0e-08
 ---------------------------------------
  Cycle       Energy         DIIS error
 ---------------------------------------
    1    -269.5623552740      1.88e-04  
    2    -269.5660538926      3.97e-05  
    3    -269.5660878284      2.23e-05  
    4    -269.5660955457      7.33e-06  
    5    -269.5660966387      2.07e-06  
    6    -269.5660967641      8.15e-07  
    7    -269.5660967841      2.38e-07  
    8    -269.5660967867      1.30e-07  
    9    -269.5660967870      3.09e-08  
   10    -269.5660967871      3.64e-09  Convergence criterion met
 ---------------------------------------
 SCF time:   CPU 288.97s  wall 21.00s 
<S^2> =          0.000000000
 SCF   energy in the final basis set =     -269.5660967871
 Total energy in the final basis set =     -269.5660967871
 No wavefunction analysis requested
 Calculating analytic gradient of the SCF energy
 Gradient of SCF Energy
            1           2           3           4           5           6
    1  -0.0005125   0.0007303  -0.0010108   0.0002958  -0.0008571   0.0000115
    2   0.0004410   0.0001370  -0.0006948   0.0000673   0.0004219  -0.0001572
    3  -0.0003473   0.0003859  -0.0004125   0.0001531  -0.0006348   0.0001802
            7           8           9          10          11          12
    1   0.0001222   0.0002279   0.0001141   0.0001409   0.0001327   0.0001123
    2  -0.0001793  -0.0001124   0.0002330   0.0001953  -0.0000114  -0.0000824
    3   0.0000090   0.0005698   0.0000966  -0.0000552   0.0000714   0.0000184
           13
    1   0.0004927
    2  -0.0002581
    3  -0.0000345
 Max gradient component =       1.011E-03
 RMS gradient           =       3.710E-04
 Gradient time:  CPU 71.47 s  wall 5.15 s
 Geometry Optimization Parameters
   NAtoms,    NIC,     NZ,  NCons,   NDum,   NFix, NCnnct, MaxDiis
       13      98       0       0       0       0       0       0

 Cartesian Hessian Update
 Hessian Updated using BFGS Update


** GEOMETRY OPTIMIZATION IN DELOCALIZED INTERNAL COORDINATES **
   Searching for a Minimum

   Optimization Cycle:   9

                       Coordinates (Angstroms)
     ATOM                X               Y               Z
      1  C         0.7275289868    0.2237378316    0.2363204066
      2  O         1.3790762024   -0.8894500687    0.8617545545
      3  C         0.2978376764   -1.7727067377    0.5147207442
      4  C        -0.4589476309   -0.6437720318   -0.1950625318
      5  O        -1.2152366588    2.4628518684   -1.4114417638
      6  H         0.5012474870    1.0131341805    0.9608209604
      7  H         1.3357445831    0.6417611620   -0.5725572839
      8  H        -0.3455488635    2.3452114414   -1.7973279862
      9  H         0.6384073496   -2.5937727122   -0.1211580746
     10  H        -0.1848933615   -2.1835646552    1.4052836171
     11  H        -0.5766044259   -0.7641383093   -1.2693709400
     12  H        -1.4180846975   -0.3713571015    0.2382975218
     13  H        -1.0491446471    2.7124981322   -0.5008122240
   Point Group: c1    Number of degrees of freedom:    33


   Energy is   -269.566096787

 Hessian Updated using BFGS Update

 33 Hessian modes will be used to form the next step
  Hessian Eigenvalues:
     0.000488    0.003110    0.005002    0.008362    0.014571    0.025349
     0.030813    0.042595    0.045447    0.045696    0.054651    0.062511
     0.065181    0.067721    0.082785    0.084915    0.097804    0.105400
     0.126669    0.145276    0.195199    0.264333    0.290992    0.323758
     0.326029    0.335277    0.339758    0.342987    0.351071    0.360930
     0.368304    0.497222    0.524795

 Minimum Search - Taking Simple RFO Step
 Searching for Lamda that Minimizes Along All modes
 Value Taken    Lamda =  -0.00003249
 Step Taken.  Stepsize is  0.181760

                             Maximum     Tolerance    Cnvgd?
         Gradient           0.000708      0.000100      NO
         Displacement       0.103754      0.000400      NO
         Energy change     -0.000026      0.000000      NO


 New Cartesian Coordinates Obtained by Inverse Iteration

 Displacement from previous Coordinates is:  0.196396
 Adding empirical dispersion correction 
 ----------------------------------------------------------------
 Doing -D3(0) with
 s6  =   1.00000
 s8  =   1.00000
 rs6 =   1.28100
 rs8 =   1.09400
 -D3 energy without 3body term =     -0.0029240592 hartrees
 ----------------------------------------------------------------
             Standard Nuclear Orientation (Angstroms)
    I     Atom           X                Y                Z
 ----------------------------------------------------------------
    1      C       0.7465671962     0.2218537582     0.2491385886
    2      O       1.3820360422    -0.9061950458     0.8654089708
    3      C       0.2895934940    -1.7709683581     0.5094226925
    4      C      -0.4484327747    -0.6270991798    -0.1959831359
    5      O      -1.2402745066     2.4214682958    -1.4052492799
    6      H       0.5271295431     1.0054503193     0.9820988686
    7      H       1.3643469622     0.6414055526    -0.5517148250
    8      H      -0.3790898089     2.3312071395    -1.8162833298
    9      H       0.6196255592    -2.5935860742    -0.1302525941
   10      H      -0.2028605508    -2.1804884409     1.3954733278
   11      H      -0.5608734925    -0.7378069355    -1.2719242425
   12      H      -1.4070846777    -0.3445014570     0.2318634719
   13      H      -1.0593009858     2.7196934259    -0.5125315128
 ----------------------------------------------------------------
 Nuclear Repulsion Energy =   180.7097210382 hartrees
 There are       21 alpha and       21 beta electrons
 Applying Cartesian multipole field
    Component          Value
    ---------          -----
     (2,0,0)        1.00000E-11
     (0,2,0)        2.00000E-11
     (0,0,2)       -3.00000E-11
 Nucleus-field energy     =     0.0000000052 hartrees
 Requested basis set is def2-TZVP
 There are 87 shells and 203 basis functions
 A cutoff of  1.0D-11 yielded   3467 shell pairs
 There are     18847 function pairs (     23731 Cartesian)
 Smallest overlap matrix eigenvalue = 3.14E-04
 Guess MOs from SCF MO coefficient file
 Reading MOs from coefficient file
 Reading MOs from coefficient file

 -----------------------------------------------------------------------
  General SCF calculation program by
  Eric Jon Sundstrom, Paul Horn, Yuezhi Mao, Dmitri Zuev, Alec White,
  David Stuck, Shaama M.S., Shane Yost, Joonho Lee, David Small,
  Daniel Levine, Susi Lehtola, Hugh Burton, Evgeny Epifanovsky
 -----------------------------------------------------------------------
 Exchange:     0.1957 Hartree-Fock + 1.0000 wB97X-D3 + LR-HF
 Correlation:  1.0000 wB97X-D3
 Using SG-2 standard quadrature grid
 Dispersion:   Grimme D3
 using 16 threads for integral computing
 -------------------------------------------------------
 OpenMP Integral computing Module                
 Release: version 1.0, May 2013, Q-Chem Inc. Pittsburgh 
 -------------------------------------------------------
 using 16 threads for integral computing
 -------------------------------------------------------
 OpenMP Integral computing Module                
 Release: version 1.0, May 2013, Q-Chem Inc. Pittsburgh 
 -------------------------------------------------------
 -------------------------------------------------------
 OpenMP BLAS3 based DFT computing Module                
 Release: version 1.0, May 2013, Q-Chem Inc. Pittsburgh 
 -------------------------------------------------------
 A unrestricted SCF calculation will be
 performed using DIIS
 SCF converges when DIIS error is below 1.0e-08
 ---------------------------------------
  Cycle       Energy         DIIS error
[...]
 H         -0.007  0.057  0.055    0.321 -0.143 -0.056    0.074  0.126  0.210
 H         -0.400 -0.435 -0.453   -0.163 -0.009  0.095   -0.061 -0.240 -0.123
 H          0.011 -0.016  0.023   -0.189 -0.065  0.222   -0.110  0.152 -0.349
 H         -0.018  0.021 -0.003   -0.295  0.277  0.070   -0.027 -0.127 -0.227
 H          0.079 -0.017 -0.040    0.261 -0.013 -0.167   -0.101  0.429  0.084
 H         -0.012 -0.023 -0.090    0.092  0.277 -0.342    0.041  0.207  0.220
 H          0.529  0.329 -0.146   -0.141 -0.146  0.140   -0.080 -0.101 -0.167
 TransDip   0.045 -0.032 -0.234   -0.016  0.026 -0.013   -0.023  0.035 -0.029

 Mode:                 4                      5                      6
 Frequency:        81.78                  94.94                  97.74
 Force Cnst:      0.0191                 0.0067                 0.0102
 Red. Mass:       4.8361                 1.2542                 1.8057
 IR Active:          YES                    YES                    YES
 IR Intens:       77.567                176.108                 27.537
 Raman Active:       YES                    YES                    YES
               X      Y      Z        X      Y      Z        X      Y      Z
 C         -0.107  0.079 -0.121   -0.000  0.012 -0.064    0.085 -0.050 -0.088
 O         -0.068  0.150 -0.028   -0.040  0.053  0.042   -0.062 -0.002  0.150
 C          0.014  0.062 -0.042    0.020  0.011 -0.042    0.044 -0.042 -0.072
 C         -0.091  0.006 -0.019   -0.025  0.012  0.005   -0.007  0.004  0.054
 O          0.287 -0.257  0.211   -0.032 -0.059  0.020   -0.019  0.068 -0.018
 H         -0.099  0.146 -0.198    0.036  0.092 -0.142    0.200  0.140 -0.266
 H         -0.136  0.009 -0.177    0.018 -0.098 -0.110    0.138 -0.313 -0.189
 H         -0.429 -0.037 -0.139    0.528 -0.275  0.269   -0.448  0.164 -0.248
 H          0.085  0.112 -0.072    0.085  0.082 -0.101    0.162  0.120 -0.225
 H          0.060 -0.014 -0.052    0.031 -0.088 -0.084    0.044 -0.272 -0.182
 H         -0.182 -0.021 -0.007   -0.123  0.022  0.015   -0.236  0.050  0.074
 H         -0.067 -0.036  0.064    0.015  0.013  0.094    0.095  0.035  0.265
 H         -0.516 -0.216 -0.140    0.607 -0.058  0.258   -0.124  0.063 -0.051
 TransDip  -0.243  0.060 -0.130    0.385 -0.115  0.140   -0.109  0.027 -0.125

 Mode:                 7                      8                      9
 Frequency:       104.64                 776.10                 822.40
 Force Cnst:      0.0069                 0.3816                 2.2769
 Red. Mass:       1.0627                 1.0754                 5.7139
 IR Active:          YES                    YES                    YES
 IR Intens:       29.295                  0.183                  5.378
 Raman Active:       YES                    YES                    YES
               X      Y      Z        X      Y      Z        X      Y      Z
 C         -0.015  0.010  0.021   -0.005  0.017  0.013   -0.086 -0.275  0.024
 O          0.003  0.003 -0.012   -0.008 -0.000 -0.015    0.299 -0.039  0.172
 C         -0.004  0.006  0.005   -0.012 -0.008  0.021    0.029  0.283 -0.049
 C         -0.004  0.004  0.001   -0.018  0.013  0.064   -0.275  0.038 -0.142
 O          0.019 -0.023 -0.044   -0.000  0.000  0.000    0.001 -0.000  0.001
 H         -0.025 -0.019  0.053    0.268  0.150 -0.049   -0.129 -0.253 -0.033
 H         -0.031  0.049  0.032   -0.132 -0.186 -0.189   -0.208 -0.287 -0.059
 H         -0.413  0.428 -0.080    0.001 -0.001  0.001   -0.004  0.002 -0.002
 H         -0.014 -0.004  0.013   -0.062  0.183 -0.260   -0.075  0.359 -0.185
 H         -0.002  0.020  0.013    0.199 -0.275  0.010    0.012  0.216 -0.104
 H          0.022  0.014 -0.002    0.535 -0.128  0.018   -0.099 -0.023 -0.155
 H         -0.017 -0.012 -0.017   -0.255  0.008 -0.470   -0.300  0.072 -0.221
 H          0.403 -0.394  0.554   -0.001  0.001 -0.001   -0.005  0.001 -0.004
 TransDip  -0.005  0.013  0.173    0.010 -0.003 -0.009   -0.063  0.010 -0.037

 Mode:                10                     11                     12
 Frequency:       844.59                 960.97                 975.72
 Force Cnst:      0.4568                 1.4456                 1.3213
 Red. Mass:       1.0868                 2.6568                 2.3557
 IR Active:          YES                    YES                    YES
 IR Intens:        0.018                 22.287                 11.510
 Raman Active:       YES                    YES                    YES
               X      Y      Z        X      Y      Z        X      Y      Z
 C          0.027 -0.012 -0.052    0.052 -0.137  0.066    0.175  0.076  0.075
 O         -0.004  0.002 -0.002   -0.123  0.043 -0.078   -0.087 -0.025 -0.041
 C         -0.026  0.007  0.053    0.168 -0.070  0.108    0.028  0.161 -0.024
 C          0.004  0.001 -0.001   -0.137  0.132 -0.108   -0.122 -0.155 -0.026
 O          0.000 -0.000 -0.001    0.000 -0.000  0.000   -0.001 -0.000 -0.000
 H         -0.330 -0.232  0.082    0.180 -0.128  0.110    0.338  0.035  0.184
 H          0.166  0.314  0.225    0.167 -0.152  0.133    0.374  0.035  0.194
 H         -0.000  0.005  0.002   -0.006 -0.000 -0.004    0.001 -0.001  0.000
 H         -0.037  0.258 -0.286    0.409 -0.094  0.255    0.035  0.157 -0.021
 H          0.194 -0.343  0.008    0.390 -0.085  0.234    0.050  0.124 -0.026
 H         -0.105 -0.386  0.054   -0.073  0.330 -0.142   -0.174 -0.472  0.013
 H          0.105  0.408 -0.039   -0.099  0.333 -0.140   -0.195 -0.465  0.018
 H         -0.001 -0.004  0.003   -0.007 -0.000 -0.003    0.001 -0.001  0.001
 TransDip   0.001 -0.002  0.004    0.120 -0.050  0.077    0.096  0.025  0.045

 Mode:                13                     14                     15
 Frequency:      1074.25                1081.93                1163.74
 Force Cnst:      5.0050                 3.8398                 1.2087
 Red. Mass:       7.3611                 5.5675                 1.5149
 IR Active:          YES                    YES                    YES
 IR Intens:       83.205                 43.167                  2.342
 Raman Active:       YES                    YES                    YES
               X      Y      Z        X      Y      Z        X      Y      Z
 C          0.137 -0.430  0.181   -0.174 -0.130 -0.061    0.066 -0.028 -0.112
 O         -0.066  0.379 -0.131   -0.222 -0.201 -0.067   -0.043  0.017  0.073
 C         -0.216  0.055 -0.132    0.227  0.346  0.033    0.049 -0.022 -0.088
 C          0.165 -0.098  0.115    0.223  0.026  0.115   -0.042  0.019  0.074
 O          0.002  0.000  0.001   -0.001  0.000 -0.001   -0.000 -0.000  0.000
 H         -0.048 -0.312  0.020   -0.225 -0.188 -0.040    0.116 -0.420  0.329
 H         -0.111 -0.292  0.042   -0.199 -0.207 -0.096   -0.265  0.500 -0.096
 H         -0.014  0.002 -0.007    0.003  0.001  0.002    0.007 -0.004  0.003
 H         -0.123  0.144 -0.155    0.029  0.327 -0.067   -0.202 -0.271  0.091
 H         -0.170  0.161 -0.088    0.044  0.312 -0.070    0.115  0.318  0.099
 H          0.244 -0.058  0.118    0.303  0.018  0.126    0.191 -0.018  0.054
 H          0.224 -0.046  0.173    0.280  0.031  0.191   -0.147 -0.006 -0.144
 H         -0.014  0.003 -0.009    0.004  0.001  0.001   -0.005  0.003 -0.005
 TransDip   0.002 -0.283  0.073    0.112  0.178  0.013    0.024 -0.008 -0.042

 Mode:                16                     17                     18
 Frequency:      1176.02                1208.20                1237.61
 Force Cnst:      0.9063                 1.0907                 1.0295
 Red. Mass:       1.1123                 1.2682                 1.1408
 IR Active:          YES                    YES                    YES
 IR Intens:        0.226                  0.126                  0.259
 Raman Active:       YES                    YES                    YES
               X      Y      Z        X      Y      Z        X      Y      Z
 C          0.022 -0.007 -0.032    0.015 -0.011 -0.041   -0.029  0.024  0.068
 O          0.006 -0.006 -0.013    0.017 -0.006 -0.025   -0.001 -0.003  0.000
 C         -0.040  0.020  0.072    0.017 -0.008 -0.040    0.031 -0.008 -0.065
 C          0.008 -0.003 -0.018   -0.060  0.028  0.118   -0.004 -0.026  0.000
 O         -0.000 -0.000  0.000    0.000 -0.000 -0.001    0.000 -0.000 -0.001
 H          0.262 -0.193  0.248   -0.371  0.019 -0.196    0.237  0.115  0.054
 H         -0.334  0.229 -0.181    0.381 -0.023  0.230   -0.214 -0.115 -0.143
 H          0.005 -0.005  0.001   -0.002  0.004  0.000   -0.002  0.005  0.001
 H          0.498  0.233  0.096    0.397 -0.066  0.247    0.142 -0.139  0.166
 H         -0.391 -0.279 -0.250   -0.403  0.070 -0.231   -0.161  0.168 -0.089
 H         -0.024  0.093 -0.026    0.262 -0.052  0.095   -0.123 -0.502  0.067
 H          0.009 -0.095  0.044   -0.197  0.040 -0.192    0.149  0.637 -0.085
 H         -0.002  0.003 -0.005    0.000 -0.003  0.003    0.000 -0.003  0.003
 TransDip  -0.006  0.007  0.012    0.004 -0.002 -0.011    0.004  0.016 -0.002

 Mode:                19                     20                     21
 Frequency:      1274.94                1325.80                1390.98
 Force Cnst:      1.4940                 1.3430                 1.6607
 Red. Mass:       1.5600                 1.2968                 1.4568
 IR Active:          YES                    YES                    YES
 IR Intens:       10.695                  0.042                  2.662
 Raman Active:       YES                    YES                    YES
               X      Y      Z        X      Y      Z        X      Y      Z
 C          0.018  0.040 -0.013    0.097  0.014  0.048   -0.117  0.001 -0.064
 O          0.000  0.001  0.000   -0.011 -0.050  0.006    0.030 -0.004  0.019
 C         -0.002  0.043  0.002   -0.081  0.038 -0.052   -0.115  0.033 -0.071
 C         -0.046 -0.208  0.028   -0.005 -0.013  0.002    0.040 -0.004  0.020
 O          0.000  0.000  0.000   -0.000 -0.001  0.000    0.000  0.001 -0.000
 H          0.044  0.020  0.023   -0.444  0.147 -0.269    0.411 -0.125  0.240
 H          0.094  0.058  0.047   -0.375  0.126 -0.250    0.362 -0.107  0.244
 H          0.000 -0.001 -0.001    0.002  0.002  0.003   -0.002 -0.003 -0.003
 H         -0.061  0.073 -0.064    0.397  0.017  0.237    0.409 -0.006  0.266
 H         -0.016  0.026 -0.019    0.449 -0.005  0.216    0.460 -0.030  0.213
 H          0.159  0.739 -0.101    0.013  0.046 -0.006    0.089 -0.020  0.024
 H          0.130  0.560 -0.076   -0.000  0.005 -0.000    0.072 -0.008  0.074
 H         -0.001  0.001 -0.001    0.004  0.002 -0.000   -0.004 -0.002  0.000
 TransDip   0.024  0.101 -0.013    0.004  0.005  0.001   -0.045  0.005 -0.025

 Mode:                22                     23                     24
 Frequency:      1501.54                1524.34                1553.37
 Force Cnst:      1.4651                 1.4891                 1.6060
 Red. Mass:       1.1029                 1.0877                 1.1297
 IR Active:          YES                    YES                    YES
 IR Intens:        4.903                  1.399                  0.018
 Raman Active:       YES                    YES                    YES
               X      Y      Z        X      Y      Z        X      Y      Z
 C         -0.000 -0.014  0.003   -0.027 -0.060  0.001    0.018  0.060 -0.006
 O          0.001 -0.001  0.000   -0.003 -0.015  0.002   -0.000 -0.002  0.001
 C          0.008  0.005  0.002   -0.004 -0.048  0.010   -0.012 -0.074  0.013
 C         -0.078  0.011 -0.046    0.010  0.002  0.005   -0.031  0.005 -0.018
 O         -0.000 -0.001  0.000    0.000  0.001 -0.000   -0.000 -0.001  0.000
 H          0.081  0.145 -0.132    0.273  0.346 -0.317   -0.200 -0.256  0.252
 H         -0.031  0.191  0.074   -0.035  0.472  0.241    0.041 -0.354 -0.185
 H          0.001  0.005  0.003    0.002 -0.009 -0.003   -0.003  0.013  0.005
 H         -0.085 -0.097  0.075    0.198  0.287 -0.283    0.235  0.322 -0.338
 H         -0.010 -0.134 -0.064   -0.055  0.416  0.172   -0.071  0.479  0.213
 H          0.635 -0.155 -0.084   -0.066  0.003  0.011    0.221 -0.055 -0.033
 H          0.240  0.034  0.605   -0.025 -0.012 -0.060    0.079  0.012  0.213
 H          0.004  0.004 -0.003   -0.003 -0.007  0.007    0.005  0.010 -0.010
 TransDip   0.061 -0.006  0.036   -0.014 -0.035  0.002   -0.003  0.002 -0.003

 Mode:                25                     26                     27
 Frequency:      1627.73                3040.22                3056.38
 Force Cnst:      1.6915                 5.7437                 5.8211
 Red. Mass:       1.0836                 1.0547                 1.0576
 IR Active:          YES                    YES                    YES
 IR Intens:       85.638                130.387                 36.817
 Raman Active:       YES                    YES                    YES
               X      Y      Z        X      Y      Z        X      Y      Z
 C         -0.001 -0.002 -0.000    0.006  0.017  0.001   -0.019 -0.061 -0.001
 O          0.000  0.000 -0.000    0.001  0.002  0.000    0.002 -0.001  0.001
 C         -0.000  0.001 -0.000    0.007  0.059 -0.019    0.003  0.020 -0.007
 C          0.001 -0.000  0.001   -0.002 -0.001 -0.000   -0.004  0.002 -0.002
 O         -0.016 -0.069  0.008   -0.000  0.000 -0.000    0.000  0.000  0.000
 H          0.011  0.007 -0.006    0.051 -0.154 -0.151   -0.162  0.495  0.476
 H          0.002  0.011  0.009   -0.114 -0.069  0.155    0.351  0.221 -0.480
 H         -0.070  0.635  0.299    0.001  0.000 -0.000   -0.001 -0.000  0.000
 H         -0.001 -0.002  0.002    0.208 -0.461 -0.383    0.061 -0.139 -0.115
 H          0.001 -0.003 -0.001   -0.318 -0.242  0.584   -0.103 -0.079  0.186
 H         -0.010  0.003  0.001    0.001  0.004  0.021    0.003  0.006  0.054
 H         -0.004 -0.001 -0.010    0.023 -0.005 -0.012    0.056 -0.018 -0.028
 H          0.319  0.457 -0.433    0.000  0.000  0.001   -0.001 -0.000 -0.001
 TransDip   0.068  0.287 -0.032    0.068  0.353 -0.067   -0.050 -0.188 -0.004

 Mode:                28                     29                     30
 Frequency:      3083.03                3098.17                3121.54
 Force Cnst:      6.2283                 6.2890                 6.0930
 Red. Mass:       1.1122                 1.1120                 1.0613
 IR Active:          YES                    YES                    YES
 IR Intens:       43.225                 33.977                 23.820
 Raman Active:       YES                    YES                    YES
               X      Y      Z        X      Y      Z        X      Y      Z
 C          0.002 -0.000 -0.003    0.047 -0.017 -0.083    0.004  0.006 -0.001
 O         -0.001  0.000  0.001   -0.001  0.000  0.001    0.000 -0.000  0.000
 C          0.045 -0.026 -0.082   -0.002  0.001  0.003    0.001 -0.006  0.001
 C         -0.005  0.002  0.010   -0.005  0.002  0.011   -0.059  0.008 -0.035
 O          0.000 -0.000 -0.000   -0.000  0.000  0.000    0.000  0.000  0.000
 H         -0.003  0.011  0.010   -0.134  0.478  0.434    0.009 -0.028 -0.028
 H         -0.017 -0.011  0.023   -0.411 -0.280  0.540   -0.033 -0.020  0.043
 H          0.000 -0.000  0.000    0.001 -0.001  0.000   -0.000  0.000  0.000
 H         -0.238  0.557  0.425    0.011 -0.026 -0.019   -0.015  0.032  0.026
 H         -0.285 -0.247  0.535    0.015  0.014 -0.029    0.015  0.012 -0.029
 H         -0.008 -0.012 -0.085   -0.008 -0.009 -0.094    0.054  0.083  0.696
 H          0.062 -0.016 -0.029    0.063 -0.021 -0.028    0.611 -0.180 -0.295
 H         -0.000  0.000 -0.000   -0.001  0.001 -0.001   -0.000  0.000 -0.000
 TransDip   0.097 -0.062 -0.176    0.093 -0.027 -0.160   -0.131  0.022 -0.083

 Mode:                31                     32                     33
 Frequency:      3176.34                3871.74                3979.26
 Force Cnst:      6.5965                 9.2239                10.1014
 Red. Mass:       1.1097                 1.0444                 1.0828
 IR Active:          YES                    YES                    YES
 IR Intens:       26.510                 11.704                 56.199
 Raman Active:       YES                    YES                    YES
               X      Y      Z        X      Y      Z        X      Y      Z
 C          0.006 -0.002 -0.010    0.000  0.000 -0.000    0.000 -0.000 -0.000
 O         -0.000  0.000  0.000    0.000 -0.000  0.000   -0.000 -0.000 -0.000
 C          0.005 -0.002 -0.009    0.000  0.000  0.000   -0.000  0.000  0.000
 C          0.046 -0.021 -0.081    0.000  0.000  0.000    0.000 -0.000 -0.000
 O         -0.000  0.000  0.000    0.011  0.048 -0.006    0.032 -0.015 -0.061
 H         -0.016  0.063  0.057    0.000 -0.000 -0.001    0.000  0.000  0.000
 H         -0.050 -0.034  0.063   -0.001 -0.000  0.001   -0.000  0.000 -0.000
 H          0.000 -0.001 -0.000   -0.359 -0.258  0.557   -0.350 -0.294  0.531
 H         -0.025  0.058  0.042    0.000 -0.000 -0.000    0.000 -0.000 -0.000
 H         -0.031 -0.029  0.061   -0.000 -0.000  0.000    0.000  0.000 -0.000
 H          0.075  0.076  0.684   -0.000  0.000 -0.000    0.000  0.000  0.000
 H         -0.616  0.178  0.273   -0.000  0.000  0.000   -0.000 -0.000  0.000
 H          0.000  0.000 -0.001    0.182 -0.500 -0.458   -0.164  0.535  0.437
 TransDip   0.079 -0.037 -0.140   -0.019 -0.106  0.019   -0.110  0.051  0.207

 STANDARD THERMODYNAMIC QUANTITIES AT   298.15 K  AND     1.00 ATM

   This Molecule has  0 Imaginary Frequencies
   Zero point vibrational energy:       69.333 kcal/mol

   Atom    1 Element C  Has Mass   12.00000
   Atom    2 Element O  Has Mass   15.99491
   Atom    3 Element C  Has Mass   12.00000
   Atom    4 Element C  Has Mass   12.00000
   Atom    5 Element O  Has Mass   15.99491
   Atom    6 Element H  Has Mass    1.00783
   Atom    7 Element H  Has Mass    1.00783
   Atom    8 Element H  Has Mass    1.00783
   Atom    9 Element H  Has Mass    1.00783
   Atom   10 Element H  Has Mass    1.00783
   Atom   11 Element H  Has Mass    1.00783
   Atom   12 Element H  Has Mass    1.00783
   Atom   13 Element H  Has Mass    1.00783
   Molecular Mass:    76.052460 amu
   Principal axes and moments of inertia in amu*Bohr^2:
                             1           2           3
    Eigenvalues --      154.89777   907.23734  1019.67000
          X              -0.38174     0.79669    -0.46857
          Y               0.82137     0.52488     0.22328
          Z              -0.42383     0.29964     0.85474
   Rotational Symmetry Number is   1
   The Molecule is an Asymmetric Top
   Translational Enthalpy:        0.889 kcal/mol
   Rotational Enthalpy:           0.889 kcal/mol
   Vibrational Enthalpy:         73.043 kcal/mol
   gas constant (RT):             0.592 kcal/mol
   Translational Entropy:        38.902  cal/mol.K
   Rotational Entropy:           26.463  cal/mol.K
   Vibrational Entropy:          29.162  cal/mol.K

   Total Enthalpy:               75.413 kcal/mol
   Total Entropy:                94.526  cal/mol.K
Archival summary:
1\1\nid00488\FREQ\ProcedureUnspecified\BasisUnspecified\238\cgrambow\TueFeb1223:54:422019TueFeb1223:54:422019\0\\#,FREQ,ProcedureUnspecified,BasisUnspecified,\\0,1\O\C,1,1.43495\H,2,1.09406,1,111.718\H,2,1.09425,1,111.652,3,122.279,0\C,1,1.438,2,91.7201,3,119.689,0\H,5,1.09264,1,111.91,2,-119.69,0\H,5,1.09305,1,111.761,2,117.827,0\C,5,1.53064,1,91.8566,2,-0.776461,0\H,8,1.08732,5,115.277,1,116.874,0\H,8,1.08752,5,115.003,1,-114.953,0\O,6,2.99668,5,88.0872,1,172.324,0\H,11,0.958162,6,118.076,5,71.5758,0\H,11,0.958194,6,91.9433,5,-179.743,0\\\@

 Total job time:  1240.63s(wall), 4300.36s(cpu) 
 Tue Feb 12 23:54:42 2019

        *************************************************************
        *                                                           *
        *  Thank you very much for using Q-Chem.  Have a nice day.  *
        *                                                           *
        *************************************************************


