
Running Job 1 of 3 ts_optfreq0096.in
qchem ts_optfreq0096.in_48730.0 /tmp/qchem48730/ 1
/global/common/cori/software/qchem/5.1/exe/qcprog.exe ts_optfreq0096.in_48730.0 /tmp/qchem48730/
Check license passed

                  Welcome to Q-Chem
     A Quantum Leap Into The Future Of Chemistry


 Q-Chem 5.1, Q-Chem, Inc., Pleasanton, CA (2018)

 Yihan Shao,  Zhengting Gan,  E. Epifanovsky,  A. T. B. Gilbert,  M. Wormit,  
 J. Kussmann,  A. W. Lange,  A. Behn,  Jia Deng,  Xintian Feng,  D. Ghosh,  
 M. Goldey,  P. R. Horn,  L. D. Jacobson,  I. Kaliman,  T. Kus,  A. Landau,  
 Jie Liu,  E. I. Proynov,  R. M. Richard,  R. P. Steele,  E. J. Sundstrom,  
 H. L. Woodcock III,  P. M. Zimmerman,  D. Zuev,  B. Albrecht,  E. Alguire,  
 S. A. Baeppler,  D. Barton,  Z. Benda,  Y. A. Bernard,  E. J. Berquist,  
 K. B. Bravaya,  H. Burton,  D. Casanova,  Chun-Min Chang,  Yunqing Chen,  
 A. Chien,  K. D. Closser,  M. P. Coons,  S. Coriani,  S. Dasgupta,  
 A. L. Dempwolff,  M. Diedenhofen,  Hainam Do,  R. G. Edgar,  Po-Tung Fang,  
 S. Faraji,  S. Fatehi,  Qingguo Feng,  K. D. Fenk,  J. Fosso-Tande,  
 Qinghui Ge,  A. Ghysels,  G. Gidofalvi,  J. Gomes,  J. Gonthier,  A. Gunina,  
 D. Hait,  M. W. D. Hanson-Heine,  P. H. P. Harbach,  A. W. Hauser,  
 J. E. Herr,  E. G. Hohenstein,  Z. C. Holden,  Kerwin Hui,  B. C. Huynh,  
 T.-C. Jagau,  Hyunjun Ji,  B. Kaduk,  K. Khistyaev,  Jaehoon Kim,  
 P. Klunzinger,  K. Koh,  D. Kosenkov,  L. Koulias,  T. Kowalczyk,  
 C. M. Krauter,  A. Kunitsa,  Ka Un Lao,  A. Laurent,  K. V. Lawler,  
 Joonho Lee,  D. Lefrancois,  S. Lehtola,  D. S. Levine,  Yi-Pei Li,  
 You-Sheng Lin,  Fenglai Liu,  E. Livshits,  A. Luenser,  P. Manohar,  
 E. Mansoor,  S. F. Manzer,  Shan-Ping Mao,  Yuezhi Mao,  N. Mardirossian,  
 A. V. Marenich,  T. Markovich,  L. A. Martinez-Martinez,  S. A. Maurer,  
 N. J. Mayhall,  S. C. McKenzie,  J.-M. Mewes,  A. F. Morrison,  
 J. W. Mullinax,  K. Nanda,  T. S. Nguyen-Beck,  R. Olivares-Amaya,  
 J. A. Parkhill,  T. M. Perrine,  F. Plasser,  P. Pokhilko,  S. Prager,  
 A. Prociuk,  E. Ramos,  D. R. Rehn,  F. Rob,  M. Schneider,  N. Sergueev,  
 S. M. Sharada,  S. Sharma,  D. W. Small,  T. Stauch,  T. Stein,  
 Yu-Chuan Su,  A. J. W. Thom,  A. Tkatchenko,  T. Tsuchimochi,  N. M. Tubman,  
 L. Vogt,  M. L. Vidal,  O. Vydrov,  M. A. Watson,  J. Wenzel,  
 M. de Wergifosse,  T. A. Wesolowski,  A. White,  J. Witte,  A. Yamada,  
 Jun Yang,  K. Yao,  S. Yeganeh,  S. R. Yost,  Zhi-Qiang You,  A. Zech,  
 Igor Ying Zhang,  Xing Zhang,  Yan Zhao,  Ying Zhu,  B. R. Brooks,  
 G. K. L. Chan,  C. J. Cramer,  M. S. Gordon,  W. J. Hehre,  A. Klamt,  
 M. W. Schmidt,  C. D. Sherrill,  D. G. Truhlar,  A. Aspuru-Guzik,  R. Baer,  
 A. T. Bell,  N. A. Besley,  Jeng-Da Chai,  R. A. DiStasio Jr.,  A. Dreuw,  
 B. D. Dunietz,  T. R. Furlani,  Chao-Ping Hsu,  Yousung Jung,  Jing Kong,  
 D. S. Lambrecht,  WanZhen Liang,  C. Ochsenfeld,  V. A. Rassolov,  
 L. V. Slipchenko,  J. E. Subotnik,  T. Van Voorhis,  J. M. Herbert,  
 A. I. Krylov,  P. M. W. Gill,  M. Head-Gordon

 Contributors to earlier versions of Q-Chem not listed above: 
 R. D. Adamson,  B. Austin,  J. Baker,  G. J. O. Beran,  K. Brandhorst,  
 S. T. Brown,  E. F. C. Byrd,  A. K. Chakraborty,  C.-L. Cheng,  
 Siu Hung Chien,  D. M. Chipman,  D. L. Crittenden,  H. Dachsel,  
 R. J. Doerksen,  A. D. Dutoi,  L. Fusti-Molnar,  W. A. Goddard III,  
 A. Golubeva-Zadorozhnaya,  S. R. Gwaltney,  G. Hawkins,  A. Heyden,  
 S. Hirata,  G. Kedziora,  F. J. Keil,  C. Kelley,  Jihan Kim,  R. A. King,  
 R. Z. Khaliullin,  P. P. Korambath,  W. Kurlancheek,  A. M. Lee,  M. S. Lee,  
 S. V. Levchenko,  Ching Yeh Lin,  D. Liotard,  R. C. Lochan,  I. Lotan,  
 P. E. Maslen,  N. Nair,  D. P. O'Neill,  D. Neuhauser,  E. Neuscamman,  
 C. M. Oana,  R. Olson,  B. Peters,  R. Peverati,  P. A. Pieniazek,  
 Y. M. Rhee,  J. Ritchie,  M. A. Rohrdanz,  E. Rosta,  N. J. Russ,  
 H. F. Schaefer III,  N. E. Schultz,  N. Shenvi,  A. C. Simmonett,  A. Sodt,  
 D. Stuck,  K. S. Thanthiriwatte,  V. Vanovschi,  Tao Wang,  A. Warshel,  
 C. F. Williams,  Q. Wu,  X. Xu,  W. Zhang

 Please cite Q-Chem as follows:
 Y. Shao et al., Mol. Phys. 113, 184-215 (2015)
 DOI: 10.1080/00268976.2014.952696

 Q-Chem 5.1.0 for Intel X86 EM64T Linux

 Parts of Q-Chem use Armadillo 8.300.2 (Tropical Shenanigans).
 http://arma.sourceforge.net/

 Q-Chem begins on Tue Feb 12 23:30:25 2019  

Host: cori07
0

     Scratch files written to /tmp/qchem48730//
 Jun2518 |scratch|qcdevops|jenkins|workspace|build_RNUM -1
Processing $rem in /global/common/cori/software/qchem/5.1/config/preferences.
 MEM_TOTAL  96000 

Checking the input file for inconsistencies... 	...done.

--------------------------------------------------------------
User input:
--------------------------------------------------------------
$molecule
0 1
C   1.1659893199   0.6573196894   0.5352720070
O   0.8181806134  -0.6016428045   1.1059826391
C   0.1332896626  -1.2699846842   0.0811731459
C  -1.0637142394  -0.4371048604  -0.2731068808
O  -0.6682020781   1.2511203831  -1.4741347982
H   1.4808290635   1.3346985764   1.3371764030
H   1.9480474791   0.5343269777  -0.2411951242
H   0.0373535593   1.2213085306  -0.6777043548
H   0.7731378629  -1.4555800040  -0.8088254676
H  -0.1906537869  -2.2641326455   0.4573187927
H  -1.7643781241  -0.8378921813  -1.0090919741
H  -1.5165595552   0.0764369202   0.5739156426
H  -1.3452067769   1.8987101025  -1.1769080305
$end

$rem
JOBTYPE                   FREQ
METHOD                    wB97X-D3
BASIS                     def2-TZVP
UNRESTRICTED              TRUE
SCF_ALGORITHM             DIIS
MAX_SCF_CYCLES            100
SCF_CONVERGENCE           8
SYM_IGNORE                TRUE
SYMMETRY                  FALSE
WAVEFUNCTION_ANALYSIS     FALSE
$end

--------------------------------------------------------------
 Adding empirical dispersion correction 
 ----------------------------------------------------------------
 Doing -D3(0) with
 s6  =   1.00000
 s8  =   1.00000
 rs6 =   1.28100
 rs8 =   1.09400
 -D3 energy without 3body term =     -0.0032427454 hartrees
 ----------------------------------------------------------------
             Standard Nuclear Orientation (Angstroms)
    I     Atom           X                Y                Z
 ----------------------------------------------------------------
    1      C       1.1659893199     0.6573196894     0.5352720070
    2      O       0.8181806134    -0.6016428045     1.1059826391
    3      C       0.1332896626    -1.2699846842     0.0811731459
    4      C      -1.0637142394    -0.4371048604    -0.2731068808
    5      O      -0.6682020781     1.2511203831    -1.4741347982
    6      H       1.4808290635     1.3346985764     1.3371764030
    7      H       1.9480474791     0.5343269777    -0.2411951242
    8      H       0.0373535593     1.2213085306    -0.6777043548
    9      H       0.7731378629    -1.4555800040    -0.8088254676
   10      H      -0.1906537869    -2.2641326455     0.4573187927
   11      H      -1.7643781241    -0.8378921813    -1.0090919741
   12      H      -1.5165595552     0.0764369202     0.5739156426
   13      H      -1.3452067769     1.8987101025    -1.1769080305
 ----------------------------------------------------------------
 Nuclear Repulsion Energy =   189.4473249277 hartrees
 There are       21 alpha and       21 beta electrons
 Requested basis set is def2-TZVP
 There are 87 shells and 203 basis functions

 Total QAlloc Memory Limit  96000 MB
 Mega-Array Size       188 MB
 MEM_STATIC part       192 MB

                       Distance Matrix (Angstroms)
             C (  1)   O (  2)   C (  3)   C (  4)   O (  5)   H (  6)
   O (  2)  1.425366
   C (  3)  2.233199  1.402138
   C (  4)  2.612053  2.338908  1.500674
   O (  5)  2.784703  3.507003  3.068769  2.109266
   H (  6)  1.095909  2.059605  3.190264  3.493852  3.539603
   H (  7)  1.108893  2.093302  2.579304  3.164713  2.979714  1.830340
   H (  8)  1.750204  2.667280  2.606078  2.031350  1.064424  2.481174
   H (  9)  2.534813  2.097076  1.111732  2.167559  3.137885  3.590516
   H ( 10)  3.222024  2.049972  1.111195  2.152623  4.039254  4.064430
   H ( 11)  3.634250  3.346485  2.230813  1.092353  2.404546  4.555930
   H ( 12)  2.744993  2.488755  2.185783  1.089147  2.508805  3.339181
   H ( 13)  3.283096  4.017910  3.716093  2.520342  0.982879  3.824292
             H (  7)   H (  8)   H (  9)   H ( 10)   H ( 11)   H ( 12)
   H (  8)  2.076833
   H (  9)  2.379569  2.779263
   H ( 10)  3.590730  3.672678  1.784873
   H ( 11)  4.031719  2.756150  2.619281  2.580917
   H ( 12)  3.588533  2.300419  3.082493  2.692561  1.844810
   H ( 13)  3.685461  1.618502  3.984235  4.618761  2.773600  2.532869

 
 A cutoff of  1.0D-11 yielded   3645 shell pairs
 There are     20213 function pairs (     25561 Cartesian)
 
 -------------------------------------------------------
 OpenMP Integral Computing Module                       
 Release: version 1.0, May 2013, Q-Chem Inc. Pittsburgh 
 -------------------------------------------------------
 Integral Job Info:
 Integral job number is                      11
 Integral operator is                         1
 short-range coefficients              19572800
 long-range coefficients              100000000
 Omega coefficients                         250
 if combine SR and LR in K                    1
 Integral screening is                        0
 Integral computing path is                   2
 max size of driver memory is            800000
 size of driver memory is                776718
 size of scratch memory is              4473992
 max col of scratch BK array              10000
 max len of scratch array in speh3          662
 max len of scratch index in speh4           32
 max int batch size is                      520
 min int batch size is                       52
 fixed nKL is                                52
 max L of basis functions is                  3
 order of int derivative is                   0
 number of shells is                         87
 number of basis is                         228
 number of cartesian basis is               228
 number of contracted shell pairs          3645
 number of primitive shell pairs           8276
 maxK2 (contraction) of shell pair           36
 max number of K2 of shell pair               1
 max number of CS2 of shell pair            585
 max number of PS2 of shell pair           1032
 mem total for path MDJ                  563348
 -------------------------------------------------------
 Smallest overlap matrix eigenvalue = 3.38E-04
 Guess from superposition of atomic densities
 Warning:  Energy on first SCF cycle will be non-variational
 SAD guess density has 42.000000 electrons

 -----------------------------------------------------------------------
  General SCF calculation program by
  Eric Jon Sundstrom, Paul Horn, Yuezhi Mao, Dmitri Zuev, Alec White,
  David Stuck, Shaama M.S., Shane Yost, Joonho Lee, David Small,
  Daniel Levine, Susi Lehtola, Hugh Burton, Evgeny Epifanovsky
 -----------------------------------------------------------------------
 Exchange:     0.1957 Hartree-Fock + 1.0000 wB97X-D3 + LR-HF
 Correlation:  1.0000 wB97X-D3
 Using SG-2 standard quadrature grid
 Dispersion:   Grimme D3
 using 16 threads for integral computing
 -------------------------------------------------------
 OpenMP Integral computing Module                
 Release: version 1.0, May 2013, Q-Chem Inc. Pittsburgh 
 -------------------------------------------------------
 using 16 threads for integral computing
 -------------------------------------------------------
 OpenMP Integral computing Module                
 Release: version 1.0, May 2013, Q-Chem Inc. Pittsburgh 
 -------------------------------------------------------
 -------------------------------------------------------
 OpenMP BLAS3 based DFT computing Module                
 Release: version 1.0, May 2013, Q-Chem Inc. Pittsburgh 
 -------------------------------------------------------
 A unrestricted SCF calculation will be
 performed using DIIS
 SCF converges when DIIS error is below 1.0e-08
 ---------------------------------------
  Cycle       Energy         DIIS error
 ---------------------------------------
    1    -270.1085598865      1.74e-02  
    2    -269.3069751963      2.43e-03  
    3    -269.2705158553      3.08e-03  
    4    -269.4129649073      2.38e-04  
    5    -269.4140429200      1.01e-04  
    6    -269.4142792499      3.44e-05  
    7    -269.4143135124      1.51e-05  
    8    -269.4143238595      1.10e-05  
    9    -269.4143300211      3.67e-06  
   10    -269.4143316174      1.56e-06  
   11    -269.4143318062      5.93e-07  
   12    -269.4143318251      2.55e-07  
   13    -269.4143318291      7.33e-08  
   14    -269.4143318294      2.70e-08  
   15    -269.4143318294      6.13e-09  Convergence criterion met
 ---------------------------------------
 SCF time:   CPU 467.63s  wall 31.00s 
<S^2> =          0.000000000
 SCF   energy in the final basis set =     -269.4143318294
 Total energy in the final basis set =     -269.4143318294
 No wavefunction analysis requested
 Calculating MO derivatives via CPSCF
 D1JvT checksum  = 1285128 38944.2878473603
 D1KAT checksum  = 2626572 3707.5142326941
 D1JvT checksum  = 1285128 25736.3597454418
 D1KAT checksum  = 2626572 1674.3585185087
   1         3          39      0.196439    0.034449
   2         3          39      0.051566    0.012797
   3         3          39      0.009228    0.002422
   4         3          39      0.001252    0.000324
   5        13          29      0.000146    0.000041
   6        39           3      0.000010    0.000005
   7        42           0      0.000000    0.000000    Roots Converged
 Time for AOints: 202.4 s (CPU) 13.6 s (wall)
 ------------------------------------------------------------------------------
                     AOints        : Timing summary (seconds)
 ------------------------------------------------------------------------------
     job step          cpu (% of tot)      sys (% of tot)     wall (% of tot)
 ------------------------------------------------------------------------------
  cpscf_lag         0.1566E+04 (40.3)   0.2686E-02 (50.9)   0.3861E+03 (39.9)
  iterzp            0.2120E+04 (54.5)   0.2122E-02 (40.2)   0.5684E+03 (58.7)
  make_fx           0.0000E+00 ( 0.0)   0.0000E+00 ( 0.0)   0.0000E+00 ( 0.0)
  AOints            0.2024E+03 ( 5.2)   0.4660E-03 ( 8.8)   0.1363E+02 ( 1.4)
 ------------------------------------------------------------------------------
   Grand Totals     0.3889E+04          0.5280E-02          0.9684E+03
 ------------------------------------------------------------------------------
 Calculating analytic Hessian of the SCF energy
 Polarizability Matrix (a.u.)
            1           2           3
    1 -75.0499632  -9.6235624 -15.2328483
    2  -9.6235624 -65.3116615   1.4780864
    3 -15.2328483   1.4780864 -54.9298238
 Running MAKENN_D3_FD2ND
 
 Direct stationary perturbation theory relativistic correction:
 
 rels  =       0.087029750529
 relv  =      -0.378051905276
 rel2e =       0.000000000000
 E_rel =      -0.291022154747
 
 Hessian of the SCF Energy
            1           2           3           4           5           6
    1   0.2973171   0.0945432  -0.0790141  -0.0555019  -0.0461820   0.0161069
    2   0.0945432   0.3876404   0.1420064  -0.0315006  -0.1547056   0.0406106
    3  -0.0790141   0.1420064   0.4623900   0.0182701   0.0516495  -0.1071687
    4  -0.0555019  -0.0315006   0.0182701   0.2033767   0.1155685   0.0846955
    5  -0.0461820  -0.1547056   0.0516495   0.1155685   0.3315784  -0.0033577
    6   0.0161069   0.0406106  -0.1071687   0.0846955  -0.0033577   0.3355450
    7  -0.0142699  -0.0411027  -0.0022188  -0.1058513  -0.0364932  -0.0431261
    8  -0.0296540  -0.0777795  -0.0179229  -0.0193412  -0.0941067  -0.0312926
    9   0.0053259  -0.0116827   0.0121998  -0.0656591  -0.0569426  -0.1758803
   10   0.0041052   0.0311638  -0.0000219  -0.0369747  -0.0024120  -0.0320362
   11   0.0096647   0.0053447   0.0021358  -0.0227131  -0.0034525  -0.0010061
   12   0.0051765   0.0308198  -0.0228546  -0.0531411  -0.0011772  -0.0314527
   13  -0.0172600   0.0263130  -0.0430314  -0.0020726  -0.0068249  -0.0022314
   14  -0.0046282   0.0440839  -0.0164144  -0.0004512  -0.0226068   0.0025783
   15  -0.0158465  -0.0013571  -0.0147593   0.0004775   0.0175417  -0.0027041
   16  -0.0593454  -0.0659023  -0.0576201  -0.0028867  -0.0011355  -0.0067525
   17  -0.0429529  -0.1289357  -0.1075439  -0.0151752  -0.0261269  -0.0219699
   18  -0.0489309  -0.1331726  -0.2052041   0.0057727   0.0141318   0.0130353
   19  -0.1568995   0.0109038   0.1408535  -0.0040100   0.0005728   0.0042465
   20   0.0269689  -0.0515071  -0.0424776  -0.0310153  -0.0096311   0.0260811
   21   0.1073984  -0.0375893  -0.1445208   0.0155069   0.0166148  -0.0113912
   22  -0.0006393  -0.0392608   0.0405340   0.0035722   0.0122657   0.0008314
   23  -0.0076293  -0.0160667  -0.0120874   0.0027217  -0.0040294   0.0027467
   24   0.0183673  -0.0392140   0.0294796   0.0002251   0.0119261  -0.0017762
   25   0.0022013   0.0048501  -0.0069049   0.0126894  -0.0121854  -0.0181742
   26   0.0042484   0.0022043  -0.0046212   0.0012539  -0.0069506  -0.0182806
   27  -0.0006671   0.0062511  -0.0002378   0.0018627  -0.0169854  -0.0317402
   28  -0.0007941   0.0089518  -0.0081715  -0.0086467  -0.0246694   0.0027968
   29  -0.0017528  -0.0062280  -0.0022661  -0.0017919  -0.0155408   0.0043396
   30  -0.0034142   0.0024445  -0.0028392  -0.0070029  -0.0276997   0.0085141
   31   0.0023913   0.0026777  -0.0008688  -0.0074149   0.0030635  -0.0052778
   32   0.0037059  -0.0011684   0.0021295   0.0018667   0.0065997  -0.0012411
   33  -0.0040663   0.0013502  -0.0021350  -0.0006968  -0.0064884   0.0038690
   34  -0.0012795  -0.0026543   0.0016807   0.0036633  -0.0013428  -0.0009550
   35  -0.0039777  -0.0053881   0.0038859   0.0005329   0.0002908   0.0001493
   36   0.0002552   0.0018555  -0.0008308  -0.0000804   0.0009936   0.0012604
   37  -0.0000253   0.0010172  -0.0034867   0.0000572  -0.0002253  -0.0001238
   38  -0.0023542   0.0025059   0.0015264   0.0000448  -0.0013183   0.0006424
   39  -0.0006910  -0.0023222  -0.0035192  -0.0002302  -0.0002065  -0.0001105
            7           8           9          10          11          12
    1  -0.0142699  -0.0296540   0.0053259   0.0041052   0.0096647   0.0051765
    2  -0.0411027  -0.0777795  -0.0116827   0.0311638   0.0053447   0.0308198
    3  -0.0022188  -0.0179229   0.0121998  -0.0000219   0.0021358  -0.0228546
    4  -0.1058513  -0.0193412  -0.0656591  -0.0369747  -0.0227131  -0.0531411
    5  -0.0364932  -0.0941067  -0.0569426  -0.0024120  -0.0034525  -0.0011772
    6  -0.0431261  -0.0312926  -0.1758803  -0.0320362  -0.0010061  -0.0314527
    7   0.4902330   0.0314021  -0.0550241  -0.1636970   0.0654556   0.0003924
    8   0.0314021   0.5242346   0.0013831   0.0659062  -0.0929310   0.0011021
    9  -0.0550241   0.0013831   0.4973624  -0.0196223   0.0066861  -0.0741157
   10  -0.1636970   0.0659062  -0.0196223   0.4863654  -0.0831976   0.0531073
   11   0.0654556  -0.0929310   0.0066861  -0.0831976   0.2972004   0.2069158
   12   0.0003924   0.0011021  -0.0741157   0.0531073   0.2069158   0.4909596
   13   0.0115262   0.0120773  -0.0011152  -0.0291859   0.0199412  -0.0189873
   14   0.0060378   0.0103473   0.0066695  -0.0223665   0.0172833  -0.0368822
   15  -0.0036326  -0.0016388  -0.0070942   0.0052043  -0.0034553  -0.0105673
   16  -0.0022978  -0.0078119   0.0010814   0.0049366   0.0008605   0.0026839
   17   0.0017652  -0.0019586   0.0039362  -0.0032931  -0.0007643  -0.0014266
   18   0.0001219   0.0007135  -0.0003723   0.0014875   0.0005781   0.0000358
   19  -0.0025479  -0.0032814   0.0002701   0.0011785  -0.0006562   0.0082371
   20   0.0007909   0.0040994   0.0070735  -0.0008767  -0.0002805  -0.0030546
   21  -0.0080343  -0.0024526  -0.0011236   0.0018240  -0.0024568   0.0069206
   22  -0.0060673  -0.0129520  -0.0009603   0.0105121  -0.0283646   0.0377232
   23   0.0018580  -0.0032589   0.0027379  -0.0062205  -0.0059072   0.0000468
   24  -0.0075455  -0.0116444   0.0002631   0.0168077  -0.0194305   0.0352399
   25  -0.1325658   0.0179360   0.1065807  -0.0171083   0.0075711   0.0203692
   26   0.0146127  -0.0512183  -0.0195008   0.0161235  -0.0077084  -0.0126383
   27   0.1040471  -0.0205263  -0.1784452  -0.0029206   0.0009101   0.0094588
   28  -0.0648335  -0.0463547   0.0215088   0.0056951   0.0177012  -0.0093739
   29  -0.0636498  -0.2192941   0.0674005   0.0001055  -0.0190007   0.0082071
   30   0.0224533   0.0802368  -0.0806416   0.0036612   0.0032266  -0.0029928
   31  -0.0035036  -0.0149842  -0.0138440  -0.1711765  -0.0558661  -0.1262982
   32   0.0077819   0.0091631   0.0071382  -0.0610837  -0.0843554  -0.0803123
   33   0.0009211  -0.0017318   0.0010982  -0.1186480  -0.0754496  -0.1777613
   34  -0.0051039   0.0090720   0.0208630  -0.0990594   0.0672397   0.0881549
   35   0.0124606  -0.0070286  -0.0159545   0.0605960  -0.1013924  -0.1092261
   36  -0.0092619   0.0038507   0.0069899   0.0920235  -0.1181782  -0.2261575
   37  -0.0010212  -0.0020142   0.0005952   0.0044089   0.0023637  -0.0080439
   38  -0.0009191  -0.0002686   0.0010556   0.0055552  -0.0040359  -0.0023743
   39   0.0009075  -0.0000768  -0.0002407  -0.0008664  -0.0004760   0.0032871
           13          14          15          16          17          18
    1  -0.0172600  -0.0046282  -0.0158465  -0.0593454  -0.0429529  -0.0489309
    2   0.0263130   0.0440839  -0.0013571  -0.0659023  -0.1289357  -0.1331726
    3  -0.0430314  -0.0164144  -0.0147593  -0.0576201  -0.1075439  -0.2052041
    4  -0.0020726  -0.0004512   0.0004775  -0.0028867  -0.0151752   0.0057727
    5  -0.0068249  -0.0226068   0.0175417  -0.0011355  -0.0261269   0.0141318
    6  -0.0022314   0.0025783  -0.0027041  -0.0067525  -0.0219699   0.0130353
    7   0.0115262   0.0060378  -0.0036326  -0.0022978   0.0017652   0.0001219
    8   0.0120773   0.0103473  -0.0016388  -0.0078119  -0.0019586   0.0007135
    9  -0.0011152   0.0066695  -0.0070942   0.0010814   0.0039362  -0.0003723
   10  -0.0291859  -0.0223665   0.0052043   0.0049366  -0.0032931   0.0014875
   11   0.0199412   0.0172833  -0.0034553   0.0008605  -0.0007643   0.0005781
   12  -0.0189873  -0.0368822  -0.0105673   0.0026839  -0.0014266   0.0000358
   13   0.3339956  -0.2263301   0.0083783  -0.0009145  -0.0001371  -0.0015313
   14  -0.2263301   0.2110470   0.0986193   0.0060665  -0.0042499   0.0015308
   15   0.0083783   0.0986193   0.2322900  -0.0043486   0.0017109  -0.0014765
   16  -0.0009145   0.0060665  -0.0043486   0.0559471   0.0601349   0.0513408
   17  -0.0001371  -0.0042499   0.0017109   0.0601349   0.1597669   0.1283175
   18  -0.0015313   0.0015308  -0.0014765   0.0513408   0.1283175   0.2049420
   19   0.0071162   0.0084393  -0.0047406   0.0057944  -0.0005025  -0.0094096
   20  -0.0021967  -0.0034206   0.0015781   0.0146523  -0.0006221  -0.0096804
   21   0.0063591   0.0066424  -0.0008768   0.0168436  -0.0036451  -0.0119668
   22  -0.0576478   0.0597715  -0.0602013  -0.0014424   0.0017358   0.0017290
   23  -0.0141920  -0.0342777  -0.0338835  -0.0046313   0.0030878  -0.0028244
   24  -0.0489997   0.0323840  -0.1184076  -0.0026183   0.0026292  -0.0005385
   25  -0.0007763  -0.0005651  -0.0011325   0.0002901   0.0002302  -0.0004317
   26  -0.0004769   0.0001369   0.0007313  -0.0000296   0.0001050   0.0003088
   27   0.0000664  -0.0011338   0.0007868   0.0007124  -0.0007445   0.0008091
   28  -0.0047828  -0.0035375  -0.0003703   0.0006912  -0.0020077   0.0004445
   29   0.0025396   0.0025576   0.0014260  -0.0023514  -0.0001907   0.0002063
   30  -0.0018557  -0.0018293  -0.0001135  -0.0007070  -0.0017109   0.0010127
   31  -0.0009282  -0.0035270   0.0013520  -0.0001277  -0.0001883   0.0000387
   32  -0.0044974  -0.0103472   0.0012217  -0.0000022  -0.0000758   0.0001310
   33   0.0054302   0.0091931   0.0001312   0.0001940   0.0000089  -0.0000751
   34  -0.0002184   0.0007772   0.0006285  -0.0001928   0.0001414  -0.0002061
   35  -0.0023072  -0.0005324   0.0068057  -0.0004950   0.0005130  -0.0004158
   36  -0.0000327   0.0000515  -0.0024160  -0.0000520  -0.0001126   0.0000626
   37  -0.2388516   0.1803131   0.0742317  -0.0004520   0.0002493  -0.0004255
   38   0.1960914  -0.2100214  -0.0893001   0.0006450  -0.0005487   0.0001755
   39   0.0975507  -0.1014093  -0.0747926  -0.0007574   0.0005506  -0.0002641
           19          20          21          22          23          24
    1  -0.1568995   0.0269689   0.1073984  -0.0006393  -0.0076293   0.0183673
    2   0.0109038  -0.0515071  -0.0375893  -0.0392608  -0.0160667  -0.0392140
    3   0.1408535  -0.0424776  -0.1445208   0.0405340  -0.0120874   0.0294796
    4  -0.0040100  -0.0310153   0.0155069   0.0035722   0.0027217   0.0002251
    5   0.0005728  -0.0096311   0.0166148   0.0122657  -0.0040294   0.0119261
    6   0.0042465   0.0260811  -0.0113912   0.0008314   0.0027467  -0.0017762
    7  -0.0025479   0.0007909  -0.0080343  -0.0060673   0.0018580  -0.0075455
    8  -0.0032814   0.0040994  -0.0024526  -0.0129520  -0.0032589  -0.0116444
    9   0.0002701   0.0070735  -0.0011236  -0.0009603   0.0027379   0.0002631
   10   0.0011785  -0.0008767   0.0018240   0.0105121  -0.0062205   0.0168077
   11  -0.0006562  -0.0002805  -0.0024568  -0.0283646  -0.0059072  -0.0194305
   12   0.0082371  -0.0030546   0.0069206   0.0377232   0.0000468   0.0352399
   13   0.0071162  -0.0021967   0.0063591  -0.0576478  -0.0141920  -0.0489997
   14   0.0084393  -0.0034206   0.0066424   0.0597715  -0.0342777   0.0323840
   15  -0.0047406   0.0015781  -0.0008768  -0.0602013  -0.0338835  -0.1184076
   16   0.0057944   0.0146523   0.0168436  -0.0014424  -0.0046313  -0.0026183
   17  -0.0005025  -0.0006221  -0.0036451   0.0017358   0.0030878   0.0026292
   18  -0.0094096  -0.0096804  -0.0119668   0.0017290  -0.0028244  -0.0005385
   19   0.1613901  -0.0154203  -0.1349100  -0.0158670   0.0030480  -0.0042086
   20  -0.0154203   0.0598759   0.0217575   0.0058257   0.0000113   0.0013240
   21  -0.1349100   0.0217575   0.1684729  -0.0105358   0.0014080  -0.0057060
   22  -0.0158670   0.0058257  -0.0105358   0.0762347   0.0058839   0.0029841
   23   0.0030480   0.0000113   0.0014080   0.0058839   0.0612273   0.0254431
   24  -0.0042086   0.0013240  -0.0057060   0.0029841   0.0254431   0.0505124
   25   0.0006510   0.0019102   0.0030653   0.0011684  -0.0003728   0.0022348
   26  -0.0003506   0.0009218   0.0014719   0.0002385  -0.0004556  -0.0007461
   27  -0.0013813  -0.0013071  -0.0002249   0.0004911  -0.0000610   0.0001565
   28   0.0024682  -0.0004026   0.0017349   0.0046760   0.0002044   0.0050882
   29  -0.0006791  -0.0001853   0.0001985  -0.0028817   0.0003503  -0.0035974
   30  -0.0002400  -0.0011798  -0.0001679   0.0020803   0.0001904   0.0019526
   31   0.0001937  -0.0005409   0.0004349   0.0010592   0.0004049   0.0005394
   32  -0.0001584  -0.0002965  -0.0000396   0.0015722  -0.0002667   0.0013085
   33   0.0000167   0.0003508   0.0000581  -0.0014845   0.0004408  -0.0018360
   34  -0.0003530   0.0005769  -0.0003326  -0.0022474  -0.0004341   0.0000492
   35  -0.0017671   0.0009971  -0.0009611  -0.0045446  -0.0003932  -0.0016908
   36   0.0007110  -0.0002633   0.0002531   0.0022323   0.0002745   0.0009044
   37   0.0008853  -0.0002722   0.0006455  -0.0133114   0.0193591   0.0170764
   38  -0.0001483   0.0000379  -0.0009487   0.0007104  -0.0000212   0.0013082
   39   0.0005553  -0.0002023   0.0002733  -0.0154232   0.0155682   0.0097558
           25          26          27          28          29          30
    1   0.0022013   0.0042484  -0.0006671  -0.0007941  -0.0017528  -0.0034142
    2   0.0048501   0.0022043   0.0062511   0.0089518  -0.0062280   0.0024445
    3  -0.0069049  -0.0046212  -0.0002378  -0.0081715  -0.0022661  -0.0028392
    4   0.0126894   0.0012539   0.0018627  -0.0086467  -0.0017919  -0.0070029
    5  -0.0121854  -0.0069506  -0.0169854  -0.0246694  -0.0155408  -0.0276997
    6  -0.0181742  -0.0182806  -0.0317402   0.0027968   0.0043396   0.0085141
    7  -0.1325658   0.0146127   0.1040471  -0.0648335  -0.0636498   0.0224533
    8   0.0179360  -0.0512183  -0.0205263  -0.0463547  -0.2192941   0.0802368
    9   0.1065807  -0.0195008  -0.1784452   0.0215088   0.0674005  -0.0806416
   10  -0.0171083   0.0161235  -0.0029206   0.0056951   0.0001055   0.0036612
   11   0.0075711  -0.0077084   0.0009101   0.0177012  -0.0190007   0.0032266
   12   0.0203692  -0.0126383   0.0094588  -0.0093739   0.0082071  -0.0029928
   13  -0.0007763  -0.0004769   0.0000664  -0.0047828   0.0025396  -0.0018557
   14  -0.0005651   0.0001369  -0.0011338  -0.0035375   0.0025576  -0.0018293
   15  -0.0011325   0.0007313   0.0007868  -0.0003703   0.0014260  -0.0001135
   16   0.0002901  -0.0000296   0.0007124   0.0006912  -0.0023514  -0.0007070
   17   0.0002302   0.0001050  -0.0007445  -0.0020077  -0.0001907  -0.0017109
   18  -0.0004317   0.0003088   0.0008091   0.0004445   0.0002063   0.0010127
   19   0.0006510  -0.0003506  -0.0013813   0.0024682  -0.0006791  -0.0002400
   20   0.0019102   0.0009218  -0.0013071  -0.0004026  -0.0001853  -0.0011798
   21   0.0030653   0.0014719  -0.0002249   0.0017349   0.0001985  -0.0001679
   22   0.0011684   0.0002385   0.0004911   0.0046760  -0.0028817   0.0020803
   23  -0.0003728  -0.0004556  -0.0000610   0.0002044   0.0003503   0.0001904
   24   0.0022348  -0.0007461   0.0001565   0.0050882  -0.0035974   0.0019526
   25   0.1420200  -0.0217903  -0.1108833  -0.0047040   0.0008874   0.0079132
   26  -0.0217903   0.0604263   0.0318812  -0.0170173   0.0033025   0.0207864
   27  -0.1108833   0.0318812   0.2087448   0.0088835   0.0001579  -0.0085949
   28  -0.0047040  -0.0170173   0.0088835   0.0695105   0.0682038  -0.0231094
   29   0.0008874   0.0033025   0.0001579   0.0682038   0.2532124  -0.0751486
   30   0.0079132   0.0207864  -0.0085949  -0.0231094  -0.0751486   0.0839278
   31   0.0001964   0.0000809   0.0011281   0.0002161   0.0010232  -0.0003000
   32   0.0003813  -0.0000851  -0.0005441  -0.0010414   0.0005864  -0.0000188
   33  -0.0009531   0.0004780  -0.0002286  -0.0001655  -0.0001164   0.0000384
   34  -0.0038117   0.0030871  -0.0015129   0.0000948   0.0003086   0.0002007
   35   0.0014909  -0.0009357   0.0023649  -0.0001841   0.0004014   0.0006881
   36  -0.0016348   0.0001955  -0.0005487   0.0007819  -0.0005353  -0.0002053
   37  -0.0002503   0.0000197   0.0001738   0.0004091   0.0000387   0.0003207
   38  -0.0003437   0.0002568  -0.0002631   0.0001536   0.0000289   0.0000144
   39  -0.0000488  -0.0000660   0.0000643  -0.0000479  -0.0002722   0.0001095
           31          32          33          34          35          36
    1   0.0023913   0.0037059  -0.0040663  -0.0012795  -0.0039777   0.0002552
    2   0.0026777  -0.0011684   0.0013502  -0.0026543  -0.0053881   0.0018555
    3  -0.0008688   0.0021295  -0.0021350   0.0016807   0.0038859  -0.0008308
    4  -0.0074149   0.0018667  -0.0006968   0.0036633   0.0005329  -0.0000804
    5   0.0030635   0.0065997  -0.0064884  -0.0013428   0.0002908   0.0009936
    6  -0.0052778  -0.0012411   0.0038690  -0.0009550   0.0001493   0.0012604
    7  -0.0035036   0.0077819   0.0009211  -0.0051039   0.0124606  -0.0092619
    8  -0.0149842   0.0091631  -0.0017318   0.0090720  -0.0070286   0.0038507
    9  -0.0138440   0.0071382   0.0010982   0.0208630  -0.0159545   0.0069899
   10  -0.1711765  -0.0610837  -0.1186480  -0.0990594   0.0605960   0.0920235
   11  -0.0558661  -0.0843554  -0.0754496   0.0672397  -0.1013924  -0.1181782
   12  -0.1262982  -0.0803123  -0.1777613   0.0881549  -0.1092261  -0.2261575
   13  -0.0009282  -0.0044974   0.0054302  -0.0002184  -0.0023072  -0.0000327
   14  -0.0035270  -0.0103472   0.0091931   0.0007772  -0.0005324   0.0000515
   15   0.0013520   0.0012217   0.0001312   0.0006285   0.0068057  -0.0024160
   16  -0.0001277  -0.0000022   0.0001940  -0.0001928  -0.0004950  -0.0000520
   17  -0.0001883  -0.0000758   0.0000089   0.0001414   0.0005130  -0.0001126
   18   0.0000387   0.0001310  -0.0000751  -0.0002061  -0.0004158   0.0000626
   19   0.0001937  -0.0001584   0.0000167  -0.0003530  -0.0017671   0.0007110
   20  -0.0005409  -0.0002965   0.0003508   0.0005769   0.0009971  -0.0002633
   21   0.0004349  -0.0000396   0.0000581  -0.0003326  -0.0009611   0.0002531
   22   0.0010592   0.0015722  -0.0014845  -0.0022474  -0.0045446   0.0022323
   23   0.0004049  -0.0002667   0.0004408  -0.0004341  -0.0003932   0.0002745
   24   0.0005394   0.0013085  -0.0018360   0.0000492  -0.0016908   0.0009044
   25   0.0001964   0.0003813  -0.0009531  -0.0038117   0.0014909  -0.0016348
   26   0.0000809  -0.0000851   0.0004780   0.0030871  -0.0009357   0.0001955
   27   0.0011281  -0.0005441  -0.0002286  -0.0015129   0.0023649  -0.0005487
   28   0.0002161  -0.0010414  -0.0001655   0.0000948  -0.0001841   0.0007819
   29   0.0010232   0.0005864  -0.0001164   0.0003086   0.0004014  -0.0005353
   30  -0.0003000  -0.0000188   0.0000384   0.0002007   0.0006881  -0.0002053
   31   0.1684004   0.0615813   0.1344914   0.0110505   0.0062695   0.0082394
   32   0.0615813   0.0810135   0.0786646  -0.0086686   0.0000885  -0.0086060
   33   0.1344914   0.0786646   0.1851280  -0.0156381  -0.0066241  -0.0079733
   34   0.0110505  -0.0086686  -0.0156381   0.0968034  -0.0683881  -0.0931805
   35   0.0062695   0.0000885  -0.0066241  -0.0683881   0.1123072   0.1197916
   36   0.0082394  -0.0086060  -0.0079733  -0.0931805   0.1197916   0.2294498
   37  -0.0003567  -0.0014376   0.0005990   0.0006540   0.0003139  -0.0000009
   38   0.0000054  -0.0008561  -0.0000762   0.0002849   0.0010724   0.0006825
   39   0.0003649   0.0001684  -0.0003135   0.0002483   0.0011868  -0.0007885
           37          38          39
    1  -0.0000253  -0.0023542  -0.0006910
    2   0.0010172   0.0025059  -0.0023222
    3  -0.0034867   0.0015264  -0.0035192
    4   0.0000572   0.0000448  -0.0002302
    5  -0.0002253  -0.0013183  -0.0002065
    6  -0.0001238   0.0006424  -0.0001105
    7  -0.0010212  -0.0009191   0.0009075
    8  -0.0020142  -0.0002686  -0.0000768
    9   0.0005952   0.0010556  -0.0002407
   10   0.0044089   0.0055552  -0.0008664
   11   0.0023637  -0.0040359  -0.0004760
   12  -0.0080439  -0.0023743   0.0032871
   13  -0.2388516   0.1960914   0.0975507
   14   0.1803131  -0.2100214  -0.1014093
   15   0.0742317  -0.0893001  -0.0747926
   16  -0.0004520   0.0006450  -0.0007574
   17   0.0002493  -0.0005487   0.0005506
   18  -0.0004255   0.0001755  -0.0002641
   19   0.0008853  -0.0001483   0.0005553
   20  -0.0002722   0.0000379  -0.0002023
   21   0.0006455  -0.0009487   0.0002733
   22  -0.0133114   0.0007104  -0.0154232
   23   0.0193591  -0.0000212   0.0155682
   24   0.0170764   0.0013082   0.0097558
   25  -0.0002503  -0.0003437  -0.0000488
   26   0.0000197   0.0002568  -0.0000660
   27   0.0001738  -0.0002631   0.0000643
   28   0.0004091   0.0001536  -0.0000479
   29   0.0000387   0.0000289  -0.0002722
   30   0.0003207   0.0000144   0.0001095
   31  -0.0003567   0.0000054   0.0003649
   32  -0.0014376  -0.0008561   0.0001684
   33   0.0005990  -0.0000762  -0.0003135
   34   0.0006540   0.0002849   0.0002483
   35   0.0003139   0.0010724   0.0011868
   36  -0.0000009   0.0006825  -0.0007885
   37   0.2478539  -0.1997254  -0.0815616
   38  -0.1997254   0.2131683   0.0875575
   39  -0.0815616   0.0875575   0.0665390
 Gradient time:  CPU 4878.53 s  wall 1491.35 s
 **********************************************************************
 **                                                                  **
 **                       VIBRATIONAL ANALYSIS                       **
 **                       --------------------                       **
 **                                                                  **
 **        VIBRATIONAL FREQUENCIES (CM**-1) AND NORMAL MODES         **
 **     FORCE CONSTANTS (mDYN/ANGSTROM) AND REDUCED MASSES (AMU)     **
 **                  INFRARED INTENSITIES (KM/MOL)                   **
 **                                                                  **
 **********************************************************************
 

 Mode:                 1                      2                      3
 Frequency:      -833.54                 201.72                 247.64
 Force Cnst:      0.9630                 0.0725                 0.1101
 Red. Mass:       2.3524                 3.0232                 3.0480
 IR Active:          YES                    YES                    YES
 IR Intens:      406.585                  9.258                 12.322
 Raman Active:       YES                    YES                    YES
               X      Y      Z        X      Y      Z        X      Y      Z
 C          0.004 -0.107  0.091    0.064 -0.066 -0.172    0.290 -0.017  0.125
 O          0.012  0.004  0.022   -0.077  0.084  0.080   -0.110  0.064  0.033
 C          0.014 -0.061  0.018    0.019 -0.076  0.129    0.017  0.128 -0.088
 C          0.038 -0.081  0.131    0.066 -0.112 -0.173   -0.123 -0.093 -0.042
 O         -0.023  0.167 -0.157   -0.053  0.152  0.099   -0.071 -0.060 -0.009
 H         -0.015  0.000  0.001    0.195  0.035 -0.309    0.593 -0.206  0.162
 H         -0.290  0.042 -0.219    0.007 -0.303 -0.190    0.150 -0.232  0.016
 H         -0.468  0.232 -0.613    0.012  0.007  0.076   -0.019  0.159 -0.188
 H          0.042  0.012  0.020    0.117 -0.261  0.239    0.091  0.303 -0.076
 H          0.179 -0.105  0.048   -0.069  0.005  0.271    0.164  0.035 -0.202
 H          0.067  0.038  0.033    0.238 -0.162 -0.309   -0.130 -0.228  0.035
 H          0.006 -0.107  0.124   -0.147 -0.147 -0.265   -0.099 -0.030 -0.067
 H         -0.014  0.141 -0.116   -0.058  0.096  0.215   -0.062 -0.055  0.003
 TransDip   0.526  0.341  0.154    0.045 -0.077  0.039   -0.040 -0.029 -0.101

 Mode:                 4                      5                      6
 Frequency:       307.87                 398.49                 506.88
 Force Cnst:      0.2565                 0.1917                 0.2066
 Red. Mass:       4.5940                 2.0486                 1.3645
 IR Active:          YES                    YES                    YES
 IR Intens:       43.153                 15.309                 37.305
 Raman Active:       YES                    YES                    YES
               X      Y      Z        X      Y      Z        X      Y      Z
 C         -0.061  0.105 -0.086    0.101  0.080  0.093    0.050 -0.002 -0.041
 O         -0.010  0.094 -0.097    0.121 -0.031 -0.080   -0.096  0.040 -0.015
 C         -0.027 -0.005 -0.024   -0.091 -0.036  0.092    0.030 -0.060 -0.043
 C         -0.243 -0.302  0.137   -0.082 -0.058 -0.071    0.030 -0.037  0.050
 O          0.262  0.074  0.075   -0.035  0.041 -0.039   -0.022  0.031 -0.012
 H          0.047  0.068 -0.100   -0.209  0.028  0.264   -0.441  0.142  0.031
 H         -0.175  0.129 -0.207    0.350  0.292  0.319    0.444 -0.004  0.367
 H          0.078 -0.109  0.278    0.016  0.030 -0.114    0.180 -0.141 -0.163
 H         -0.117  0.141 -0.121   -0.227 -0.336  0.062    0.070 -0.076 -0.003
 H          0.255 -0.088  0.007   -0.231  0.082  0.311    0.035 -0.052 -0.011
 H         -0.202 -0.299  0.096    0.059 -0.127 -0.169   -0.207  0.006  0.251
 H         -0.241 -0.247  0.105   -0.258 -0.028 -0.181    0.329  0.104  0.120
 H          0.302  0.157 -0.024    0.005  0.056  0.024    0.144  0.085  0.249
 TransDip   0.040 -0.160  0.130   -0.121 -0.027 -0.018    0.100 -0.079  0.148

 Mode:                 7                      8                      9
 Frequency:       590.05                 697.26                 784.22
 Force Cnst:      0.3285                 0.3132                 0.5682
 Red. Mass:       1.6017                 1.0934                 1.5681
 IR Active:          YES                    YES                    YES
 IR Intens:        5.324                 63.893                 95.252
 Raman Active:       YES                    YES                    YES
               X      Y      Z        X      Y      Z        X      Y      Z
 C         -0.014 -0.073 -0.063   -0.033  0.024  0.046   -0.036  0.035 -0.020
 O          0.070 -0.052  0.092   -0.004  0.023 -0.029    0.070 -0.071  0.087
 C          0.015  0.110  0.020   -0.017 -0.003 -0.001   -0.003  0.014  0.026
 C         -0.077  0.010  0.015    0.013  0.013 -0.012   -0.057 -0.053 -0.068
 O         -0.026  0.009 -0.044    0.014 -0.016 -0.024    0.010  0.077 -0.057
 H         -0.313  0.160 -0.142    0.196 -0.062  0.025    0.096 -0.001 -0.037
 H          0.184 -0.107  0.142   -0.219  0.049 -0.156   -0.014 -0.080  0.015
 H          0.135 -0.281 -0.123    0.184 -0.176 -0.271    0.011  0.012  0.121
 H          0.001  0.395 -0.050   -0.019 -0.067  0.006    0.036  0.112  0.031
 H          0.161 -0.034 -0.231   -0.027  0.028  0.065    0.011 -0.043 -0.120
 H          0.181 -0.018 -0.214    0.023  0.023 -0.027   -0.362 -0.249  0.318
 H         -0.394 -0.131 -0.064   -0.006 -0.041  0.012    0.356  0.501 -0.195
 H          0.233  0.147  0.246    0.143 -0.256  0.798   -0.273 -0.306  0.130
 TransDip   0.035  0.032  0.057    0.173 -0.105  0.157   -0.236 -0.204  0.013

 Mode:                10                     11                     12
 Frequency:       823.17                 873.47                 918.88
 Force Cnst:      0.4750                 1.0613                 0.9776
 Red. Mass:       1.1897                 2.3610                 1.9652
 IR Active:          YES                    YES                    YES
 IR Intens:       25.503                 92.998                 13.947
 Raman Active:       YES                    YES                    YES
               X      Y      Z        X      Y      Z        X      Y      Z
 C         -0.045  0.048  0.028   -0.020  0.193 -0.091    0.046  0.107 -0.021
 O          0.024 -0.022  0.025   -0.063 -0.139  0.054    0.015 -0.006  0.080
 C          0.037 -0.019 -0.002    0.013  0.057 -0.023    0.041 -0.196 -0.008
 C         -0.020 -0.014 -0.050    0.078 -0.079  0.122   -0.130  0.068 -0.037
 O         -0.054 -0.017  0.002   -0.016  0.046 -0.072   -0.000  0.005 -0.025
 H          0.242 -0.069  0.018    0.440 -0.178  0.062    0.164  0.071 -0.029
 H         -0.144 -0.019 -0.070    0.218 -0.141  0.187    0.065  0.024  0.014
 H          0.118 -0.150 -0.121    0.107  0.052  0.028    0.013  0.041  0.021
 H          0.087 -0.096  0.049   -0.067 -0.153 -0.035    0.095  0.054 -0.006
 H         -0.048  0.019  0.022   -0.482  0.154 -0.150    0.303 -0.276 -0.037
 H         -0.163 -0.027  0.092    0.271  0.052 -0.118   -0.232  0.677 -0.263
 H          0.162  0.119 -0.041   -0.037 -0.311  0.208   -0.053 -0.223  0.200
 H          0.540  0.663 -0.111   -0.055 -0.034  0.006   -0.090 -0.108  0.019
 TransDip   0.083  0.108 -0.087   -0.217 -0.211 -0.064   -0.050 -0.005 -0.109

 Mode:                13                     14                     15
 Frequency:       958.07                1000.11                1070.22
 Force Cnst:      0.7282                 1.2205                 0.8364
 Red. Mass:       1.3465                 2.0710                 1.2395
 IR Active:          YES                    YES                    YES
 IR Intens:       15.465                104.275                229.845
 Raman Active:       YES                    YES                    YES
               X      Y      Z        X      Y      Z        X      Y      Z
 C         -0.018  0.059 -0.031   -0.078 -0.068 -0.000   -0.069 -0.021 -0.037
 O         -0.043 -0.022 -0.057   -0.039 -0.005 -0.108    0.021 -0.018 -0.006
 C         -0.029 -0.059  0.091    0.188  0.026  0.106    0.041  0.047  0.016
 C          0.051 -0.002  0.045   -0.075  0.072  0.016   -0.051  0.000 -0.031
 O         -0.008 -0.014  0.024   -0.012  0.048 -0.067    0.026 -0.024  0.054
 H          0.124 -0.171  0.115    0.234 -0.481  0.239   -0.054 -0.054 -0.012
 H          0.082 -0.009  0.069    0.178 -0.215  0.258    0.074 -0.134  0.112
 H          0.123  0.205 -0.189   -0.029 -0.269  0.289    0.270  0.691 -0.531
 H         -0.164  0.339 -0.116    0.144 -0.044  0.081    0.127 -0.068  0.103
 H          0.376 -0.273 -0.146    0.227  0.103  0.323   -0.024  0.092  0.098
 H          0.255 -0.019 -0.137   -0.103 -0.044  0.096   -0.152  0.024  0.041
 H         -0.078  0.464 -0.324   -0.185 -0.055  0.054    0.005 -0.138  0.089
 H          0.052  0.061 -0.007   -0.079 -0.050 -0.001   -0.035 -0.053 -0.027
 TransDip  -0.037  0.073 -0.096   -0.011 -0.221  0.241   -0.171  0.321 -0.322

 Mode:                16                     17                     18
 Frequency:      1112.87                1158.86                1163.38
 Force Cnst:      1.0415                 1.4714                 1.2700
 Red. Mass:       1.4273                 1.8596                 1.5926
 IR Active:          YES                    YES                    YES
 IR Intens:       26.944                 36.761                 28.977
 Raman Active:       YES                    YES                    YES
               X      Y      Z        X      Y      Z        X      Y      Z
 C         -0.028 -0.049  0.008   -0.086 -0.044  0.002    0.063  0.026 -0.042
 O          0.025  0.022 -0.025    0.098  0.136  0.018   -0.045 -0.068 -0.050
 C         -0.039  0.110  0.029   -0.137 -0.066 -0.011   -0.044  0.048  0.153
 C          0.007 -0.132 -0.009    0.063  0.000 -0.039    0.038  0.004 -0.071
 O         -0.009 -0.013  0.006   -0.006  0.013 -0.016    0.003 -0.000 -0.006
 H          0.015 -0.122  0.057    0.271 -0.383  0.175   -0.169 -0.109  0.148
 H          0.055 -0.064  0.083    0.253 -0.233  0.331   -0.089  0.404 -0.246
 H         -0.065 -0.104  0.057    0.051 -0.011  0.043   -0.048 -0.025  0.019
 H         -0.029  0.051  0.047   -0.075  0.253 -0.020    0.229  0.363  0.282
 H          0.054  0.100  0.102   -0.083 -0.186 -0.310    0.025 -0.113 -0.227
 H         -0.014  0.697 -0.396   -0.046 -0.157  0.148   -0.200 -0.015  0.167
 H          0.461  0.162  0.040    0.068 -0.382  0.201    0.179 -0.391  0.260
 H         -0.009 -0.013 -0.006    0.006  0.038 -0.036    0.048  0.041  0.013
 TransDip  -0.085 -0.129  0.062   -0.047 -0.188 -0.003    0.077  0.151  0.031

 Mode:                19                     20                     21
 Frequency:      1220.05                1279.75                1386.43
 Force Cnst:      1.0867                 1.2313                 1.4711
 Red. Mass:       1.2391                 1.2760                 1.2990
 IR Active:          YES                    YES                    YES
 IR Intens:       24.687                 20.045                  3.220
 Raman Active:       YES                    YES                    YES
               X      Y      Z        X      Y      Z        X      Y      Z
 C          0.004 -0.045 -0.060   -0.002 -0.022 -0.073   -0.014  0.021 -0.013
 O          0.013  0.052  0.039   -0.013 -0.012  0.095    0.012 -0.031 -0.001
 C          0.042 -0.033 -0.033   -0.016  0.035 -0.053   -0.122  0.024 -0.084
 C         -0.051 -0.007  0.050    0.022  0.008 -0.030   -0.005  0.022  0.035
 O          0.003 -0.009  0.006    0.001 -0.001  0.001    0.001  0.001  0.002
 H         -0.084 -0.408  0.278   -0.004 -0.348  0.208    0.132  0.005 -0.043
 H          0.033  0.437 -0.121    0.072  0.464 -0.079    0.113  0.047  0.091
 H         -0.020  0.037 -0.020    0.002  0.030 -0.023   -0.025 -0.065  0.016
 H          0.312 -0.074  0.184   -0.388 -0.101 -0.294    0.585 -0.158  0.479
 H         -0.403  0.014 -0.284    0.388  0.071  0.393    0.445 -0.054  0.232
 H          0.082  0.067 -0.118   -0.029 -0.078  0.063    0.204 -0.156 -0.057
 H         -0.120  0.271 -0.161    0.064 -0.101  0.056    0.029  0.055  0.024
 H          0.005 -0.023  0.038    0.026  0.023  0.008   -0.011 -0.006 -0.011
 TransDip  -0.042 -0.146 -0.046    0.060  0.063 -0.114    0.049  0.027 -0.013

 Mode:                22                     23                     24
 Frequency:      1466.59                1470.27                1496.62
 Force Cnst:      1.4842                 1.3943                 1.4711
 Red. Mass:       1.1712                 1.0948                 1.1147
 IR Active:          YES                    YES                    YES
 IR Intens:        3.545                  1.846                  8.743
 Raman Active:       YES                    YES                    YES
               X      Y      Z        X      Y      Z        X      Y      Z
 C          0.012  0.002  0.004   -0.035 -0.059  0.023    0.023  0.043 -0.017
 O          0.001  0.007  0.000   -0.016 -0.006 -0.013    0.013 -0.009  0.008
 C          0.027 -0.026  0.018    0.016 -0.039  0.001   -0.018 -0.058 -0.050
 C         -0.103  0.045 -0.008   -0.011 -0.003 -0.000    0.017 -0.009  0.005
 O         -0.003  0.006 -0.006   -0.001  0.004  0.002   -0.001 -0.004 -0.002
 H         -0.113 -0.031  0.074    0.399  0.235 -0.380   -0.235 -0.128  0.221
 H         -0.086 -0.089 -0.071    0.224  0.505  0.165   -0.116 -0.287 -0.099
 H          0.091  0.020  0.005    0.068 -0.008 -0.039   -0.041  0.030  0.030
 H         -0.074  0.023 -0.072    0.047  0.405 -0.041    0.170  0.585 -0.021
 H         -0.043 -0.020 -0.024   -0.214  0.132  0.215   -0.215  0.243  0.525
 H          0.482 -0.376 -0.327    0.054 -0.046 -0.040   -0.010  0.014  0.014
 H          0.559  0.020  0.358    0.082  0.022  0.034   -0.045  0.021 -0.049
 H         -0.013  0.000 -0.017   -0.031 -0.012 -0.039    0.033  0.017  0.037
 TransDip   0.033 -0.041 -0.030   -0.002 -0.041 -0.014   -0.038  0.078  0.039

 Mode:                25                     26                     27
 Frequency:      1617.90                1719.95                2889.27
 Force Cnst:      1.6400                 2.1010                 5.2343
 Red. Mass:       1.0634                 1.2055                 1.0642
 IR Active:          YES                    YES                    YES
 IR Intens:       61.442                278.235                 60.368
 Raman Active:       YES                    YES                    YES
               X      Y      Z        X      Y      Z        X      Y      Z
 C          0.007 -0.007  0.028    0.012 -0.046  0.031    0.007  0.001 -0.005
 O          0.001  0.007  0.000    0.001  0.009 -0.002   -0.001 -0.001 -0.002
 C         -0.010 -0.003 -0.006   -0.013 -0.007 -0.004    0.038 -0.033 -0.050
 C          0.013 -0.017  0.017    0.015 -0.027  0.029    0.001  0.000  0.002
 O         -0.023  0.042  0.009   -0.045  0.004 -0.085    0.000 -0.000  0.001
 H         -0.038 -0.037  0.059   -0.059  0.052 -0.037   -0.006 -0.022 -0.017
 H         -0.150  0.029 -0.145   -0.094  0.067 -0.084   -0.086  0.004  0.078
 H          0.732 -0.373 -0.203    0.484  0.529  0.613   -0.002 -0.001 -0.008
 H          0.018  0.009  0.011    0.021 -0.020  0.031   -0.552  0.138  0.743
 H          0.023  0.001  0.023    0.075 -0.023  0.018    0.107  0.279 -0.124
 H         -0.019  0.053  0.015    0.017  0.051  0.001   -0.006 -0.011 -0.014
 H         -0.059 -0.035 -0.011   -0.036 -0.021 -0.002    0.007  0.001 -0.013
 H         -0.282 -0.098 -0.361    0.124  0.109  0.169   -0.000  0.001  0.000
 TransDip  -0.040 -0.245  0.038   -0.005 -0.425  0.323    0.100 -0.151 -0.170

 Mode:                28                     29                     30
 Frequency:      2910.71                2926.38                3087.02
 Force Cnst:      5.3053                 5.5093                 6.1656
 Red. Mass:       1.0628                 1.0919                 1.0981
 IR Active:          YES                    YES                    YES
 IR Intens:       79.563                  6.080                 31.347
 Raman Active:       YES                    YES                    YES
               X      Y      Z        X      Y      Z        X      Y      Z
 C          0.055  0.004 -0.039    0.014  0.001 -0.011   -0.007 -0.053 -0.073
 O          0.002  0.002 -0.000    0.001 -0.000  0.001   -0.000  0.000 -0.000
 C          0.004  0.019 -0.006   -0.040 -0.061  0.045    0.001  0.001  0.000
 C          0.000  0.000 -0.000    0.001 -0.002  0.001    0.001 -0.000 -0.000
 O          0.000 -0.000  0.000    0.000  0.000  0.000   -0.000 -0.000  0.000
 H         -0.047 -0.175 -0.194   -0.013 -0.039 -0.045    0.268  0.597  0.709
 H         -0.639  0.108  0.659   -0.157  0.030  0.171   -0.184  0.029  0.159
 H          0.007 -0.004 -0.004   -0.001  0.001 -0.004    0.008  0.000  0.001
 H          0.028  0.007 -0.025    0.195 -0.069 -0.250    0.003  0.002 -0.001
 H         -0.078 -0.234  0.092    0.261  0.816 -0.307   -0.004 -0.006  0.001
 H          0.001  0.002  0.002   -0.007 -0.006 -0.013   -0.007 -0.004 -0.007
 H         -0.001  0.000 -0.001   -0.004  0.004  0.011   -0.004  0.004  0.006
 H         -0.003 -0.001 -0.000   -0.001  0.001 -0.001   -0.001 -0.001  0.000
 TransDip   0.248  0.100 -0.099   -0.011 -0.067  0.041   -0.008 -0.116 -0.136

 Mode:                31                     32                     33
 Frequency:      3106.50                3212.32                3603.45
 Force Cnst:      6.0033                 6.7842                 8.1488
 Red. Mass:       1.0558                 1.1159                 1.0651
 IR Active:          YES                    YES                    YES
 IR Intens:        6.824                  4.301                 35.842
 Raman Active:       YES                    YES                    YES
               X      Y      Z        X      Y      Z        X      Y      Z
 C          0.000 -0.001 -0.001   -0.000 -0.000  0.000    0.000 -0.000 -0.000
 O         -0.000 -0.000  0.000    0.000  0.000  0.001    0.000  0.000 -0.000
 C          0.002 -0.003  0.001    0.000 -0.001 -0.002   -0.000 -0.000  0.000
 C         -0.065  0.002 -0.009   -0.002 -0.050 -0.085   -0.000  0.001 -0.001
 O          0.001  0.000  0.000    0.000  0.000  0.001   -0.044  0.040  0.017
 H          0.003  0.007  0.009   -0.001 -0.000 -0.001   -0.001  0.001 -0.001
 H         -0.004  0.000  0.005   -0.002  0.000 -0.000    0.000 -0.000  0.003
 H         -0.004  0.001 -0.006   -0.004  0.002 -0.007   -0.003  0.019  0.023
 H         -0.001  0.001 -0.001   -0.014  0.004  0.014    0.000 -0.000  0.001
 H          0.002  0.018 -0.008    0.002  0.006 -0.002    0.001  0.001  0.000
 H          0.508  0.284  0.556    0.372  0.201  0.397   -0.001 -0.001  0.002
 H          0.231 -0.290 -0.457   -0.335  0.396  0.620    0.002 -0.003 -0.002
 H         -0.004 -0.001  0.001    0.003  0.000 -0.002    0.700 -0.650 -0.287
 TransDip  -0.073 -0.018 -0.038   -0.049 -0.026 -0.036    0.114 -0.154  0.015

 STANDARD THERMODYNAMIC QUANTITIES AT   298.15 K  AND     1.00 ATM

   This Molecule has  1 Imaginary Frequencies
   Zero point vibrational energy:       66.055 kcal/mol

   Atom    1 Element C  Has Mass   12.00000
   Atom    2 Element O  Has Mass   15.99491
   Atom    3 Element C  Has Mass   12.00000
   Atom    4 Element C  Has Mass   12.00000
   Atom    5 Element O  Has Mass   15.99491
   Atom    6 Element H  Has Mass    1.00783
   Atom    7 Element H  Has Mass    1.00783
   Atom    8 Element H  Has Mass    1.00783
   Atom    9 Element H  Has Mass    1.00783
   Atom   10 Element H  Has Mass    1.00783
   Atom   11 Element H  Has Mass    1.00783
   Atom   12 Element H  Has Mass    1.00783
   Atom   13 Element H  Has Mass    1.00783
   Molecular Mass:    76.052460 amu
   Principal axes and moments of inertia in amu*Bohr^2:
                             1           2           3
    Eigenvalues --      257.22508   491.35198   672.83725
          X               0.52107     0.61817    -0.58851
          Y              -0.52114     0.77650     0.35421
          Z               0.67594     0.12213     0.72677
   Rotational Symmetry Number is   1
   The Molecule is an Asymmetric Top
   Translational Enthalpy:        0.889 kcal/mol
   Rotational Enthalpy:           0.889 kcal/mol
   Vibrational Enthalpy:         67.787 kcal/mol
   gas constant (RT):             0.592 kcal/mol
   Translational Entropy:        38.902  cal/mol.K
   Rotational Entropy:           25.944  cal/mol.K
   Vibrational Entropy:           8.887  cal/mol.K

   Total Enthalpy:               70.157 kcal/mol
   Total Entropy:                73.733  cal/mol.K
Archival summary:
1\1\nid00491\FREQ\ProcedureUnspecified\BasisUnspecified\238\cgrambow\TueFeb1223:55:492019TueFeb1223:55:492019\0\\#,FREQ,ProcedureUnspecified,BasisUnspecified,\\0,1\O\C,1,1.40214\H,2,1.1112,1,108.75\H,2,1.11173,1,112.554,3,-118.16,0\C,1,1.42537,2,104.333,3,-179.003,0\H,5,1.09591,1,108.848,2,166.026,0\H,5,1.10889,1,110.762,2,-70.1304,0\C,2,1.50067,1,107.315,3,119.095,0\H,8,1.08915,2,114.188,1,-35.156,0\H,8,1.09235,2,117.844,1,-175.574,0\H,5,1.7502,1,113.876,2,29.8872,0\O,11,1.06442,5,162.752,1,-34.3028,0\H,12,0.982879,11,104.404,5,136.797,0\\\@

 Total job time:  1523.49s(wall), 5354.50s(cpu) 
 Tue Feb 12 23:55:49 2019

        *************************************************************
        *                                                           *
        *  Thank you very much for using Q-Chem.  Have a nice day.  *
        *                                                           *
        *************************************************************



Running Job 2 of 3 ts_optfreq0096.in
qchem ts_optfreq0096.in_48730.1 /tmp/qchem48730/ 1
/global/common/cori/software/qchem/5.1/exe/qcprog.exe ts_optfreq0096.in_48730.1 /tmp/qchem48730/
Check license passed

                  Welcome to Q-Chem
     A Quantum Leap Into The Future Of Chemistry


 Q-Chem 5.1, Q-Chem, Inc., Pleasanton, CA (2018)

 Yihan Shao,  Zhengting Gan,  E. Epifanovsky,  A. T. B. Gilbert,  M. Wormit,  
 J. Kussmann,  A. W. Lange,  A. Behn,  Jia Deng,  Xintian Feng,  D. Ghosh,  
 M. Goldey,  P. R. Horn,  L. D. Jacobson,  I. Kaliman,  T. Kus,  A. Landau,  
 Jie Liu,  E. I. Proynov,  R. M. Richard,  R. P. Steele,  E. J. Sundstrom,  
 H. L. Woodcock III,  P. M. Zimmerman,  D. Zuev,  B. Albrecht,  E. Alguire,  
 S. A. Baeppler,  D. Barton,  Z. Benda,  Y. A. Bernard,  E. J. Berquist,  
 K. B. Bravaya,  H. Burton,  D. Casanova,  Chun-Min Chang,  Yunqing Chen,  
 A. Chien,  K. D. Closser,  M. P. Coons,  S. Coriani,  S. Dasgupta,  
 A. L. Dempwolff,  M. Diedenhofen,  Hainam Do,  R. G. Edgar,  Po-Tung Fang,  
 S. Faraji,  S. Fatehi,  Qingguo Feng,  K. D. Fenk,  J. Fosso-Tande,  
 Qinghui Ge,  A. Ghysels,  G. Gidofalvi,  J. Gomes,  J. Gonthier,  A. Gunina,  
 D. Hait,  M. W. D. Hanson-Heine,  P. H. P. Harbach,  A. W. Hauser,  
 J. E. Herr,  E. G. Hohenstein,  Z. C. Holden,  Kerwin Hui,  B. C. Huynh,  
 T.-C. Jagau,  Hyunjun Ji,  B. Kaduk,  K. Khistyaev,  Jaehoon Kim,  
 P. Klunzinger,  K. Koh,  D. Kosenkov,  L. Koulias,  T. Kowalczyk,  
 C. M. Krauter,  A. Kunitsa,  Ka Un Lao,  A. Laurent,  K. V. Lawler,  
 Joonho Lee,  D. Lefrancois,  S. Lehtola,  D. S. Levine,  Yi-Pei Li,  
 You-Sheng Lin,  Fenglai Liu,  E. Livshits,  A. Luenser,  P. Manohar,  
 E. Mansoor,  S. F. Manzer,  Shan-Ping Mao,  Yuezhi Mao,  N. Mardirossian,  
 A. V. Marenich,  T. Markovich,  L. A. Martinez-Martinez,  S. A. Maurer,  
 N. J. Mayhall,  S. C. McKenzie,  J.-M. Mewes,  A. F. Morrison,  
 J. W. Mullinax,  K. Nanda,  T. S. Nguyen-Beck,  R. Olivares-Amaya,  
 J. A. Parkhill,  T. M. Perrine,  F. Plasser,  P. Pokhilko,  S. Prager,  
 A. Prociuk,  E. Ramos,  D. R. Rehn,  F. Rob,  M. Schneider,  N. Sergueev,  
 S. M. Sharada,  S. Sharma,  D. W. Small,  T. Stauch,  T. Stein,  
 Yu-Chuan Su,  A. J. W. Thom,  A. Tkatchenko,  T. Tsuchimochi,  N. M. Tubman,  
 L. Vogt,  M. L. Vidal,  O. Vydrov,  M. A. Watson,  J. Wenzel,  
 M. de Wergifosse,  T. A. Wesolowski,  A. White,  J. Witte,  A. Yamada,  
 Jun Yang,  K. Yao,  S. Yeganeh,  S. R. Yost,  Zhi-Qiang You,  A. Zech,  
 Igor Ying Zhang,  Xing Zhang,  Yan Zhao,  Ying Zhu,  B. R. Brooks,  
 G. K. L. Chan,  C. J. Cramer,  M. S. Gordon,  W. J. Hehre,  A. Klamt,  
 M. W. Schmidt,  C. D. Sherrill,  D. G. Truhlar,  A. Aspuru-Guzik,  R. Baer,  
 A. T. Bell,  N. A. Besley,  Jeng-Da Chai,  R. A. DiStasio Jr.,  A. Dreuw,  
 B. D. Dunietz,  T. R. Furlani,  Chao-Ping Hsu,  Yousung Jung,  Jing Kong,  
 D. S. Lambrecht,  WanZhen Liang,  C. Ochsenfeld,  V. A. Rassolov,  
 L. V. Slipchenko,  J. E. Subotnik,  T. Van Voorhis,  J. M. Herbert,  
 A. I. Krylov,  P. M. W. Gill,  M. Head-Gordon

 Contributors to earlier versions of Q-Chem not listed above: 
 R. D. Adamson,  B. Austin,  J. Baker,  G. J. O. Beran,  K. Brandhorst,  
 S. T. Brown,  E. F. C. Byrd,  A. K. Chakraborty,  C.-L. Cheng,  
 Siu Hung Chien,  D. M. Chipman,  D. L. Crittenden,  H. Dachsel,  
 R. J. Doerksen,  A. D. Dutoi,  L. Fusti-Molnar,  W. A. Goddard III,  
 A. Golubeva-Zadorozhnaya,  S. R. Gwaltney,  G. Hawkins,  A. Heyden,  
 S. Hirata,  G. Kedziora,  F. J. Keil,  C. Kelley,  Jihan Kim,  R. A. King,  
 R. Z. Khaliullin,  P. P. Korambath,  W. Kurlancheek,  A. M. Lee,  M. S. Lee,  
 S. V. Levchenko,  Ching Yeh Lin,  D. Liotard,  R. C. Lochan,  I. Lotan,  
 P. E. Maslen,  N. Nair,  D. P. O'Neill,  D. Neuhauser,  E. Neuscamman,  
 C. M. Oana,  R. Olson,  B. Peters,  R. Peverati,  P. A. Pieniazek,  
 Y. M. Rhee,  J. Ritchie,  M. A. Rohrdanz,  E. Rosta,  N. J. Russ,  
 H. F. Schaefer III,  N. E. Schultz,  N. Shenvi,  A. C. Simmonett,  A. Sodt,  
 D. Stuck,  K. S. Thanthiriwatte,  V. Vanovschi,  Tao Wang,  A. Warshel,  
 C. F. Williams,  Q. Wu,  X. Xu,  W. Zhang

 Please cite Q-Chem as follows:
 Y. Shao et al., Mol. Phys. 113, 184-215 (2015)
 DOI: 10.1080/00268976.2014.952696

 Q-Chem 5.1.0 for Intel X86 EM64T Linux

 Parts of Q-Chem use Armadillo 8.300.2 (Tropical Shenanigans).
 http://arma.sourceforge.net/

 Q-Chem begins on Tue Feb 12 23:55:49 2019  

Host: cori07
0

     Scratch files written to /tmp/qchem48730//
 Jun2518 |scratch|qcdevops|jenkins|workspace|build_RNUM -1
Processing $rem in /global/common/cori/software/qchem/5.1/config/preferences.
 MEM_TOTAL  96000 
The previous job contains 0 fragments, simply inherited here

Checking the input file for inconsistencies... 	...done.

--------------------------------------------------------------
User input:
--------------------------------------------------------------

$molecule
read
$end

$rem
JOBTYPE                   TS
METHOD                    wB97X-D3
BASIS                     def2-TZVP
UNRESTRICTED              TRUE
SCF_GUESS                 READ
GEOM_OPT_HESSIAN          READ
SCF_ALGORITHM             DIIS
MAX_SCF_CYCLES            100
SCF_CONVERGENCE           8
SYM_IGNORE                TRUE
SYMMETRY                  FALSE
GEOM_OPT_MAX_CYCLES       100
GEOM_OPT_TOL_GRADIENT     100
GEOM_OPT_TOL_DISPLACEMENT 400
GEOM_OPT_TOL_ENERGY       33
WAVEFUNCTION_ANALYSIS     FALSE
$end

--------------------------------------------------------------
 Adding empirical dispersion correction 
 ----------------------------------------------------------------
 Doing -D3(0) with
 s6  =   1.00000
 s8  =   1.00000
 rs6 =   1.28100
 rs8 =   1.09400
 -D3 energy without 3body term =     -0.0032427454 hartrees
 ----------------------------------------------------------------
             Standard Nuclear Orientation (Angstroms)
    I     Atom           X                Y                Z
 ----------------------------------------------------------------
    1      C       1.1659893199     0.6573196894     0.5352720070
    2      O       0.8181806134    -0.6016428045     1.1059826391
    3      C       0.1332896626    -1.2699846842     0.0811731459
    4      C      -1.0637142394    -0.4371048604    -0.2731068808
    5      O      -0.6682020781     1.2511203831    -1.4741347982
    6      H       1.4808290635     1.3346985764     1.3371764030
    7      H       1.9480474791     0.5343269777    -0.2411951242
    8      H       0.0373535593     1.2213085306    -0.6777043548
    9      H       0.7731378629    -1.4555800040    -0.8088254676
   10      H      -0.1906537869    -2.2641326455     0.4573187927
   11      H      -1.7643781241    -0.8378921813    -1.0090919741
   12      H      -1.5165595552     0.0764369202     0.5739156426
   13      H      -1.3452067769     1.8987101025    -1.1769080305
 ----------------------------------------------------------------
 Nuclear Repulsion Energy =   189.4473249277 hartrees
 There are       21 alpha and       21 beta electrons
 Requested basis set is def2-TZVP
 There are 87 shells and 203 basis functions

 Total QAlloc Memory Limit  96000 MB
 Mega-Array Size       188 MB
 MEM_STATIC part       192 MB
 A cutoff of  1.0D-11 yielded   3645 shell pairs
 There are     20213 function pairs (     25561 Cartesian)
 
 -------------------------------------------------------
 OpenMP Integral Computing Module                       
 Release: version 1.0, May 2013, Q-Chem Inc. Pittsburgh 
 -------------------------------------------------------
 Integral Job Info:
 Integral job number is                      11
 Integral operator is                         1
 short-range coefficients              19572800
 long-range coefficients              100000000
 Omega coefficients                         250
 if combine SR and LR in K                    1
 Integral screening is                        0
 Integral computing path is                   2
 max size of driver memory is            800000
 size of driver memory is                776718
 size of scratch memory is              4473992
 max col of scratch BK array              10000
 max len of scratch array in speh3          662
 max len of scratch index in speh4           32
 max int batch size is                      520
 min int batch size is                       52
 fixed nKL is                                52
 max L of basis functions is                  3
 order of int derivative is                   0
 number of shells is                         87
 number of basis is                         228
 number of cartesian basis is               228
 number of contracted shell pairs          3645
 number of primitive shell pairs           8276
 maxK2 (contraction) of shell pair           36
 max number of K2 of shell pair               1
 max number of CS2 of shell pair            585
 max number of PS2 of shell pair           1032
 mem total for path MDJ                  563348
 -------------------------------------------------------
 Smallest overlap matrix eigenvalue = 3.38E-04

 Scale SEOQF with 1.000000e-01/1.000000e-01/1.000000e-01

 Standard Electronic Orientation quadrupole field applied
 Nucleus-field energy     =     0.0000000007 hartrees

 -----------------------------------------------------------------------
  General SCF calculation program by
  Eric Jon Sundstrom, Paul Horn, Yuezhi Mao, Dmitri Zuev, Alec White,
  David Stuck, Shaama M.S., Shane Yost, Joonho Lee, David Small,
  Daniel Levine, Susi Lehtola, Hugh Burton, Evgeny Epifanovsky
 -----------------------------------------------------------------------
 Exchange:     0.1957 Hartree-Fock + 1.0000 wB97X-D3 + LR-HF
 Correlation:  1.0000 wB97X-D3
 Using SG-2 standard quadrature grid
 Dispersion:   Grimme D3
 using 16 threads for integral computing
 -------------------------------------------------------
 OpenMP Integral computing Module                
 Release: version 1.0, May 2013, Q-Chem Inc. Pittsburgh 
 -------------------------------------------------------
 using 16 threads for integral computing
 -------------------------------------------------------
 OpenMP Integral computing Module                
 Release: version 1.0, May 2013, Q-Chem Inc. Pittsburgh 
 -------------------------------------------------------
 -------------------------------------------------------
 OpenMP BLAS3 based DFT computing Module                
 Release: version 1.0, May 2013, Q-Chem Inc. Pittsburgh 
 -------------------------------------------------------
 A unrestricted SCF calculation will be
 performed using DIIS
 SCF converges when DIIS error is below 1.0e-08
 ---------------------------------------
  Cycle       Energy         DIIS error
 ---------------------------------------
    1    -269.4143318292      1.78e-09  
    2    -269.4143318292      8.75e-10  Convergence criterion met
 ---------------------------------------
 SCF time:   CPU 67.42s  wall 4.00s 
<S^2> =          0.000000000
 SCF   energy in the final basis set =     -269.4143318292
 Total energy in the final basis set =     -269.4143318292
 No wavefunction analysis requested
 Calculating analytic gradient of the SCF energy
 Gradient of SCF Energy
            1           2           3           4           5           6
    1   0.0066853   0.0045247  -0.0056751  -0.0040490   0.0102485   0.0009623
    2   0.0009738   0.0038840  -0.0047189  -0.0000584  -0.0017067   0.0027705
    3   0.0036538   0.0147430  -0.0074352  -0.0019851  -0.0172287   0.0040367
            7           8           9          10          11          12
    1   0.0016960   0.0004675   0.0026444   0.0008998  -0.0042153  -0.0029514
    2   0.0002349  -0.0001704  -0.0018699  -0.0054730  -0.0039686   0.0003022
    3  -0.0051763   0.0023656  -0.0049127   0.0029370  -0.0014512   0.0037769
           13
    1  -0.0112377
    2   0.0098004
    3   0.0066764
 Max gradient component =       1.723E-02
 RMS gradient           =       5.789E-03
 Gradient time:  CPU 82.89 s  wall 5.77 s
 Geometry Optimization Parameters
   NAtoms,    NIC,     NZ,  NCons,   NDum,   NFix, NCnnct, MaxDiis
       13      72       0       0       0       0       0       0

 Cartesian Hessian read from HESS file


** GEOMETRY OPTIMIZATION IN DELOCALIZED INTERNAL COORDINATES **
   Searching for a Transition State

   Optimization Cycle:   1

                       Coordinates (Angstroms)
     ATOM                X               Y               Z
      1  C         1.1659893199    0.6573196894    0.5352720070
      2  O         0.8181806134   -0.6016428045    1.1059826391
      3  C         0.1332896626   -1.2699846842    0.0811731459
      4  C        -1.0637142394   -0.4371048604   -0.2731068808
      5  O        -0.6682020781    1.2511203831   -1.4741347982
      6  H         1.4808290635    1.3346985764    1.3371764030
      7  H         1.9480474791    0.5343269777   -0.2411951242
      8  H         0.0373535593    1.2213085306   -0.6777043548
      9  H         0.7731378629   -1.4555800040   -0.8088254676
     10  H        -0.1906537869   -2.2641326455    0.4573187927
     11  H        -1.7643781241   -0.8378921813   -1.0090919741
     12  H        -1.5165595552    0.0764369202    0.5739156426
     13  H        -1.3452067769    1.8987101025   -1.1769080305
   Point Group: c1    Number of degrees of freedom:    33


   Energy is   -269.414331829


 Attempting to Generate Delocalized Internal Coordinates

 Transforming Cartesian Hessian to Internal Coordinates
 Hessian Transformation does not Include Derivative of B-matrix

 33 Hessian modes will be used to form the next step
  Hessian Eigenvalues:
    -0.566939    0.001131    0.008107    0.017174    0.025638    0.032437
     0.032581    0.055424    0.060483    0.062215    0.066651    0.084545
     0.098195    0.105790    0.115094    0.124967    0.135845    0.143922
     0.163313    0.227782    0.263964    0.274333    0.291801    0.301556
     0.305632    0.333458    0.348694    0.353902    0.355796    0.385644
     0.440500    0.471929    1.187343

 Transition State Search - Taking P-RFO Step
 Searching for Lamda that Maximizes Along the Lowest mode
 Value Taken    Lamda =   0.00133078
 Searching for Lamda that Minimizes Along All other modes
 Value Taken    Lamda =  -0.00713929
 Step Taken.  Stepsize is  0.257693

                             Maximum     Tolerance    Cnvgd?
         Gradient           0.066614      0.000100      NO
         Displacement       0.123598      0.000400      NO
         Energy change     *********      0.000000      NO


 New Cartesian Coordinates Obtained by Inverse Iteration

 Displacement from previous Coordinates is:  0.498093
 Adding empirical dispersion correction 
 ----------------------------------------------------------------
 Doing -D3(0) with
 s6  =   1.00000
 s8  =   1.00000
 rs6 =   1.28100
 rs8 =   1.09400
 -D3 energy without 3body term =     -0.0031549801 hartrees
 ----------------------------------------------------------------
             Standard Nuclear Orientation (Angstroms)
    I     Atom           X                Y                Z
 ----------------------------------------------------------------
    1      C       1.0999628589     0.6227372030     0.5169569321
    2      O       0.8455035120    -0.6457313275     1.0930876052
    3      C       0.1537955106    -1.2947452112     0.0893050647
    4      C      -0.9893491756    -0.3967368638    -0.2424376551
    5      O      -0.6811252589     1.2342267783    -1.4601513017
    6      H       1.3727418159     1.3275951415     1.3021593203
    7      H       1.8984888987     0.5414266166    -0.2380640799
    8      H       0.0058235536     1.2083196863    -0.6729583079
    9      H       0.7821793611    -1.4826064464    -0.7980324209
   10      H      -0.2187787014    -2.2711466348     0.4385251918
   11      H      -1.6976055197    -0.7286337089    -0.9933014508
   12      H      -1.4137592503     0.1061691604     0.6165698401
   13      H      -1.3497646048     1.8867096065    -1.2217867379
 ----------------------------------------------------------------
 Nuclear Repulsion Energy =   192.3633876467 hartrees
 There are       21 alpha and       21 beta electrons
 Applying Cartesian multipole field
    Component          Value
    ---------          -----
     (2,0,0)        1.00000E-11
     (0,2,0)        2.00000E-11
     (0,0,2)       -3.00000E-11
 Nucleus-field energy     =     0.0000000007 hartrees
 Requested basis set is def2-TZVP
 There are 87 shells and 203 basis functions
 A cutoff of  1.0D-11 yielded   3651 shell pairs
 There are     20229 function pairs (     25578 Cartesian)
 Smallest overlap matrix eigenvalue = 3.11E-04

 -----------------------------------------------------------------------
  General SCF calculation program by
  Eric Jon Sundstrom, Paul Horn, Yuezhi Mao, Dmitri Zuev, Alec White,
  David Stuck, Shaama M.S., Shane Yost, Joonho Lee, David Small,
  Daniel Levine, Susi Lehtola, Hugh Burton, Evgeny Epifanovsky
 -----------------------------------------------------------------------
 Exchange:     0.1957 Hartree-Fock + 1.0000 wB97X-D3 + LR-HF
 Correlation:  1.0000 wB97X-D3
 Using SG-2 standard quadrature grid
 Dispersion:   Grimme D3
 using 16 threads for integral computing
 -------------------------------------------------------
 OpenMP Integral computing Module                
 Release: version 1.0, May 2013, Q-Chem Inc. Pittsburgh 
 -------------------------------------------------------
 using 16 threads for integral computing
 -------------------------------------------------------
 OpenMP Integral computing Module                
 Release: version 1.0, May 2013, Q-Chem Inc. Pittsburgh 
 -------------------------------------------------------
 -------------------------------------------------------
 OpenMP BLAS3 based DFT computing Module                
 Release: version 1.0, May 2013, Q-Chem Inc. Pittsburgh 
 -------------------------------------------------------
 A unrestricted SCF calculation will be
 performed using DIIS
 SCF converges when DIIS error is below 1.0e-08
 ---------------------------------------
  Cycle       Energy         DIIS error
 ---------------------------------------
    1    -269.4119069654      4.14e-04  
    2    -269.4168867454      9.82e-05  
    3    -269.4173336306      7.10e-05  
    4    -269.4174484878      2.39e-05  
    5    -269.4174731375      1.55e-05  
    6    -269.4174811570      3.22e-06  
    7    -269.4174823441      1.14e-06  
    8    -269.4174824514      7.84e-07  
    9    -269.4174824746      2.43e-07  
   10    -269.4174824815      1.13e-07  
   11    -269.4174824824      3.91e-08  
   12    -269.4174824825      2.43e-08  
   13    -269.4174824826      6.26e-09  Convergence criterion met
 ---------------------------------------
 SCF time:   CPU 424.83s  wall 29.00s 
<S^2> =          0.000000000
 SCF   energy in the final basis set =     -269.4174824826
 Total energy in the final basis set =     -269.4174824826
 No wavefunction analysis requested
 Calculating analytic gradient of the SCF energy
 Gradient of SCF Energy
            1           2           3           4           5           6
    1   0.0009361  -0.0026097   0.0016588  -0.0005212  -0.0010383   0.0007694
    2   0.0009385  -0.0002922   0.0015578   0.0008450  -0.0013713  -0.0005251
    3  -0.0000327  -0.0005516   0.0005358  -0.0018296  -0.0005936   0.0001138
            7           8           9          10          11          12
    1  -0.0001427  -0.0005248  -0.0000032   0.0003191  -0.0000313   0.0005634
    2  -0.0004120  -0.0009385   0.0002125   0.0000442   0.0000923   0.0008375
    3  -0.0001965   0.0017583  -0.0000223  -0.0001280   0.0001534  -0.0001768
           13
    1   0.0006243
    2  -0.0009888
    3   0.0009699
 Max gradient component =       2.610E-03
 RMS gradient           =       8.913E-04
 Gradient time:  CPU 85.55 s  wall 5.94 s
 Geometry Optimization Parameters
   NAtoms,    NIC,     NZ,  NCons,   NDum,   NFix, NCnnct, MaxDiis
       13      72       0       0       0       0       0       0

 Cartesian Hessian Update
 Hessian Updated using Powell/Murtagh-Sargent Update
  Mixing factors:     0.998925 Powell
                      0.001075 Murtagh-Sargent


** GEOMETRY OPTIMIZATION IN DELOCALIZED INTERNAL COORDINATES **
   Searching for a Transition State

   Optimization Cycle:   2

                       Coordinates (Angstroms)
     ATOM                X               Y               Z
      1  C         1.0999628589    0.6227372030    0.5169569321
      2  O         0.8455035120   -0.6457313275    1.0930876052
      3  C         0.1537955106   -1.2947452112    0.0893050647
      4  C        -0.9893491756   -0.3967368638   -0.2424376551
      5  O        -0.6811252589    1.2342267783   -1.4601513017
      6  H         1.3727418159    1.3275951415    1.3021593203
      7  H         1.8984888987    0.5414266166   -0.2380640799
      8  H         0.0058235536    1.2083196863   -0.6729583079
      9  H         0.7821793611   -1.4826064464   -0.7980324209
     10  H        -0.2187787014   -2.2711466348    0.4385251918
     11  H        -1.6976055197   -0.7286337089   -0.9933014508
     12  H        -1.4137592503    0.1061691604    0.6165698401
     13  H        -1.3497646048    1.8867096065   -1.2217867379
   Point Group: c1    Number of degrees of freedom:    33


   Energy is   -269.417482483

 Hessian Updated using Powell/Murtagh-Sargent Update
  Mixing factors:     0.999336 Powell
                      0.000664 Murtagh-Sargent

 33 Hessian modes will be used to form the next step
  Hessian Eigenvalues:
    -0.587058    0.001165    0.005011    0.015661    0.025580    0.032446
     0.033191    0.055462    0.060632    0.062017    0.066306    0.084159
     0.096845    0.105736    0.115378    0.124617    0.135840    0.144147
     0.163078    0.227633    0.265289    0.274614    0.291776    0.301458
     0.305386    0.333353    0.348782    0.354000    0.355974    0.385591
     0.441271    0.474996    1.212357

 Transition State Search - Taking P-RFO Step
 Searching for Lamda that Maximizes Along the Lowest mode
 Value Taken    Lamda =   0.00025031
 Searching for Lamda that Minimizes Along All other modes
 Value Taken    Lamda =  -0.00089352
 Calculated Step too Large.  Step scaled by  0.919622
 Step Taken.  Stepsize is  0.300000

                             Maximum     Tolerance    Cnvgd?
         Gradient           0.016629      0.000100      NO
         Displacement       0.151248      0.000400      NO
         Energy change     -0.003151      0.000000      NO


 New Cartesian Coordinates Obtained by Inverse Iteration

 Displacement from previous Coordinates is:  0.297287
[...]
 H         -0.290  0.016 -0.235    0.006  0.362  0.256   -0.090 -0.288 -0.201
 H         -0.423  0.296 -0.537    0.013 -0.015 -0.053   -0.077  0.142 -0.063
 H          0.033  0.008  0.022   -0.165  0.194 -0.208    0.161  0.401 -0.122
 H          0.159 -0.121  0.041    0.031 -0.005 -0.184    0.220 -0.047 -0.336
 H          0.147  0.139 -0.019   -0.203  0.152  0.281   -0.136 -0.047  0.127
 H         -0.019 -0.150  0.148    0.105  0.097  0.250    0.061 -0.003  0.085
 H          0.033  0.202 -0.152    0.123 -0.034 -0.276   -0.061 -0.054 -0.151
 TransDip   0.422  0.336  0.092   -0.040  0.074 -0.020    0.004  0.022 -0.111

 Mode:                 4                      5                      6
 Frequency:       321.68                 379.01                 428.03
 Force Cnst:      0.1628                 0.2677                 0.1407
 Red. Mass:       2.6697                 3.1629                 1.3035
 IR Active:          YES                    YES                    YES
 IR Intens:       19.138                 19.680                103.296
 Raman Active:       YES                    YES                    YES
               X      Y      Z        X      Y      Z        X      Y      Z
 C         -0.127  0.040 -0.112   -0.217 -0.082 -0.095   -0.021 -0.021 -0.078
 O         -0.007  0.066 -0.042   -0.037 -0.029  0.066   -0.069  0.031  0.030
 C          0.009 -0.016 -0.005    0.051 -0.012 -0.051    0.042 -0.008 -0.047
 C         -0.120 -0.153  0.092    0.221  0.236  0.010   -0.001 -0.031  0.069
 O          0.195  0.040  0.092    0.008 -0.083  0.062    0.012  0.015 -0.022
 H          0.169  0.054 -0.196   -0.022  0.028 -0.236   -0.331  0.117 -0.127
 H         -0.373 -0.019 -0.411   -0.405 -0.162 -0.325    0.183 -0.041  0.168
 H         -0.073 -0.065  0.415   -0.072  0.022  0.205    0.236 -0.334 -0.174
 H         -0.027  0.122 -0.062    0.158  0.087 -0.007    0.097  0.143 -0.043
 H          0.196 -0.091 -0.015   -0.027 -0.019 -0.180    0.140 -0.079 -0.140
 H         -0.054 -0.073 -0.004    0.090  0.291  0.112   -0.122  0.047  0.156
 H         -0.160 -0.199  0.100    0.302  0.082  0.136    0.172  0.004  0.131
 H          0.178  0.138 -0.328   -0.219 -0.248 -0.113    0.289  0.115  0.560
 TransDip   0.036 -0.112  0.075    0.052  0.125 -0.042    0.193 -0.111  0.238

 Mode:                 7                      8                      9
 Frequency:       531.20                 583.34                 699.58
 Force Cnst:      0.2096                 0.3151                 0.3795
 Red. Mass:       1.2605                 1.5718                 1.3160
 IR Active:          YES                    YES                    YES
 IR Intens:       37.162                 51.509                 79.452
 Raman Active:       YES                    YES                    YES
               X      Y      Z        X      Y      Z        X      Y      Z
 C         -0.049  0.004  0.046    0.019  0.073  0.047   -0.029  0.042  0.072
 O          0.065 -0.021  0.002   -0.085  0.054 -0.072   -0.029  0.036 -0.049
 C         -0.024  0.054  0.027   -0.011 -0.102 -0.031    0.011 -0.036 -0.020
 C         -0.039  0.022 -0.015    0.047 -0.049  0.020    0.045  0.018 -0.027
 O          0.033 -0.007 -0.055    0.053  0.034 -0.018   -0.041 -0.063  0.033
 H          0.280 -0.050  0.014    0.200 -0.074  0.134    0.320 -0.078  0.095
 H         -0.291 -0.007 -0.255   -0.057  0.070 -0.045   -0.238  0.031 -0.189
 H          0.043 -0.174 -0.065   -0.047  0.144  0.041    0.137 -0.086 -0.222
 H         -0.067  0.104 -0.019    0.003 -0.327  0.032    0.031 -0.250  0.040
 H          0.010  0.027 -0.016   -0.094  0.011  0.176   -0.107  0.073  0.143
 H          0.121 -0.029 -0.152   -0.243  0.019  0.275    0.023  0.061 -0.021
 H         -0.253 -0.065 -0.062    0.436  0.088  0.123    0.049 -0.113  0.046
 H         -0.063 -0.307  0.699   -0.341 -0.418  0.267    0.559  0.499  0.067
 TransDip   0.007 -0.123  0.151   -0.052 -0.200  0.100    0.236  0.152 -0.052

 Mode:                10                     11                     12
 Frequency:       810.13                 905.95                 938.32
 Force Cnst:      0.6285                 0.8528                 0.8154
 Red. Mass:       1.6254                 1.7635                 1.5718
 IR Active:          YES                    YES                    YES
 IR Intens:       15.868                 58.672                109.825
 Raman Active:       YES                    YES                    YES
               X      Y      Z        X      Y      Z        X      Y      Z
 C         -0.076  0.027  0.011    0.016 -0.122  0.059   -0.058  0.123 -0.072
 O          0.091 -0.068  0.078    0.008  0.105 -0.073   -0.027 -0.071 -0.001
 C          0.031 -0.007  0.028   -0.021 -0.075  0.058   -0.052  0.006  0.038
 C         -0.064 -0.034 -0.090   -0.045  0.054 -0.068    0.074 -0.069  0.053
 O         -0.026  0.058 -0.046    0.019 -0.039  0.067    0.012 -0.013  0.040
 H          0.163 -0.012 -0.007   -0.234 -0.003  0.005    0.204 -0.062  0.038
 H         -0.146 -0.059 -0.075   -0.126  0.086 -0.114    0.090 -0.061  0.092
 H          0.010 -0.155  0.105    0.068  0.240 -0.246    0.261  0.483 -0.414
 H          0.101  0.014  0.066   -0.010  0.260 -0.024   -0.162  0.206 -0.098
 H          0.000 -0.026 -0.057    0.561 -0.283  0.069   -0.022 -0.115 -0.231
 H         -0.422 -0.141  0.300   -0.114 -0.019  0.019    0.247 -0.170 -0.073
 H          0.461  0.510 -0.165    0.003  0.415 -0.257    0.026  0.344 -0.220
 H          0.109  0.194 -0.069    0.018 -0.039  0.067    0.032  0.002  0.049
 TransDip  -0.093 -0.087  0.006    0.092  0.214 -0.077   -0.156  0.150 -0.257

 Mode:                13                     14                     15
 Frequency:       965.72                 998.79                1041.65
 Force Cnst:      1.1252                 0.7958                 1.2006
 Red. Mass:       2.0477                 1.3539                 1.8780
 IR Active:          YES                    YES                    YES
 IR Intens:       21.481                225.236                  6.968
 Raman Active:       YES                    YES                    YES
               X      Y      Z        X      Y      Z        X      Y      Z
 C         -0.012 -0.143  0.045   -0.009 -0.023 -0.007   -0.127 -0.075 -0.047
 O         -0.015  0.045 -0.063    0.060  0.001  0.059   -0.026 -0.014 -0.072
 C         -0.050  0.196 -0.016   -0.024  0.049 -0.057    0.171  0.071  0.066
 C          0.112 -0.091  0.024   -0.065 -0.023 -0.064   -0.068  0.049  0.015
 O          0.011  0.002  0.018    0.036 -0.025  0.051    0.008  0.024 -0.015
 H         -0.238 -0.016 -0.024   -0.195  0.211 -0.172    0.233 -0.443  0.205
 H         -0.132 -0.001 -0.095   -0.073  0.008 -0.083    0.227 -0.282  0.347
 H         -0.083 -0.100  0.051    0.179  0.522 -0.430    0.167  0.208 -0.141
 H         -0.090 -0.049  0.009    0.126 -0.170  0.104    0.135 -0.134  0.081
 H         -0.300  0.298  0.034   -0.206  0.140  0.024    0.136  0.187  0.337
 H          0.127 -0.670  0.252   -0.260  0.040  0.092   -0.109 -0.113  0.113
 H          0.141  0.203 -0.148    0.088 -0.329  0.187   -0.156 -0.085  0.064
 H          0.044  0.033  0.013   -0.028 -0.086  0.059   -0.058 -0.036 -0.026
 TransDip   0.068 -0.035  0.127   -0.139  0.310 -0.340   -0.083 -0.007  0.017

 Mode:                16                     17                     18
 Frequency:      1136.61                1162.12                1197.16
 Force Cnst:      1.0141                 1.1364                 1.3155
 Red. Mass:       1.3323                 1.4281                 1.5579
 IR Active:          YES                    YES                    YES
 IR Intens:       14.122                  4.736                 31.074
 Raman Active:       YES                    YES                    YES
               X      Y      Z        X      Y      Z        X      Y      Z
 C         -0.023 -0.044  0.004    0.019  0.020  0.035    0.080  0.022 -0.074
 O          0.012  0.016 -0.021   -0.032 -0.049  0.023   -0.083 -0.101 -0.006
 C         -0.019  0.103  0.019    0.109 -0.001 -0.102    0.070  0.058  0.070
 C         -0.005 -0.116 -0.004   -0.059  0.012  0.069   -0.027  0.008  0.002
 O         -0.009 -0.024  0.014    0.002 -0.007  0.012    0.006 -0.011  0.006
 H          0.026 -0.089  0.035   -0.130  0.365 -0.237   -0.260 -0.229  0.197
 H          0.039 -0.070  0.070   -0.110 -0.116 -0.095   -0.198  0.682 -0.393
 H         -0.049 -0.041  0.017    0.010  0.022 -0.039   -0.051  0.055 -0.023
 H         -0.014  0.021  0.042   -0.136 -0.399 -0.172    0.268  0.012  0.204
 H          0.034  0.108  0.101    0.068  0.178  0.346   -0.000  0.061  0.018
 H          0.087  0.732 -0.418    0.150  0.034 -0.151   -0.034  0.056 -0.012
 H          0.412  0.175  0.015   -0.175  0.464 -0.249    0.009  0.075 -0.016
 H         -0.017 -0.034  0.006   -0.032 -0.042  0.010    0.035  0.005  0.050
 TransDip  -0.062 -0.092  0.046   -0.003  0.065 -0.024    0.069  0.164 -0.019

 Mode:                19                     20                     21
 Frequency:      1217.61                1280.16                1393.81
 Force Cnst:      1.4773                 1.2552                 1.5556
 Red. Mass:       1.6912                 1.3000                 1.3591
 IR Active:          YES                    YES                    YES
 IR Intens:       58.497                 12.586                  2.511
 Raman Active:       YES                    YES                    YES
               X      Y      Z        X      Y      Z        X      Y      Z
 C          0.023  0.072  0.046    0.009  0.022  0.056   -0.020  0.012 -0.016
 O         -0.056 -0.117 -0.071   -0.008 -0.011 -0.104    0.018 -0.025  0.012
 C         -0.013  0.080  0.102    0.030 -0.020  0.066   -0.136  0.037 -0.091
 C          0.055  0.003 -0.067   -0.030  0.004  0.036    0.001  0.018  0.033
 O         -0.002  0.006 -0.005   -0.000 -0.000  0.000    0.000  0.002  0.001
 H         -0.078  0.429 -0.248   -0.077  0.294 -0.167    0.171  0.008 -0.040
 H         -0.074 -0.280 -0.042   -0.044 -0.346  0.003    0.107  0.099  0.115
 H         -0.007 -0.045  0.016    0.005 -0.013  0.006   -0.012 -0.057  0.020
 H         -0.212  0.178 -0.069    0.552  0.056  0.385    0.525 -0.225  0.406
 H          0.472 -0.026  0.306   -0.339 -0.043 -0.358    0.506 -0.105  0.224
 H         -0.133 -0.026  0.137    0.033  0.063 -0.050    0.206 -0.192 -0.066
 H          0.172 -0.327  0.182   -0.089  0.123 -0.054    0.059  0.043  0.036
 H          0.010  0.025 -0.028   -0.025 -0.023 -0.006   -0.006 -0.001 -0.012
 TransDip   0.076  0.223  0.066   -0.033 -0.025  0.106    0.041 -0.000 -0.030

 Mode:                22                     23                     24
 Frequency:      1467.75                1470.19                1503.05
 Force Cnst:      1.4660                 1.4286                 1.4914
 Red. Mass:       1.1550                 1.1218                 1.1204
 IR Active:          YES                    YES                    YES
 IR Intens:        7.392                  1.965                  9.140
 Raman Active:       YES                    YES                    YES
               X      Y      Z        X      Y      Z        X      Y      Z
 C         -0.019 -0.051  0.025    0.027  0.041 -0.009    0.014  0.039 -0.016
 O         -0.015 -0.002 -0.013    0.011  0.011  0.008    0.015 -0.007  0.008
 C          0.033 -0.048  0.016    0.010 -0.004  0.012   -0.026 -0.061 -0.056
 C         -0.066  0.030 -0.001   -0.072  0.044 -0.002    0.009 -0.006  0.003
 O         -0.004  0.014  0.001   -0.002  0.003 -0.004    0.002 -0.009 -0.003
 H          0.274  0.219 -0.264   -0.335 -0.205  0.268   -0.188 -0.125  0.165
 H          0.066  0.395  0.098   -0.140 -0.390 -0.175   -0.040 -0.251 -0.072
 H          0.189 -0.081 -0.080    0.042  0.012  0.006   -0.111  0.089  0.056
 H          0.003  0.304 -0.071   -0.096 -0.194 -0.030    0.232  0.587 -0.011
 H         -0.190  0.095  0.129    0.073 -0.097 -0.141   -0.193  0.257  0.551
 H          0.296 -0.250 -0.232    0.332 -0.280 -0.253    0.016 -0.021 -0.003
 H          0.375 -0.019  0.234    0.394 -0.036  0.260   -0.011  0.035 -0.032
 H         -0.078 -0.035 -0.095   -0.000  0.004 -0.004    0.061  0.032  0.072
 TransDip   0.025 -0.081 -0.021    0.030 -0.001 -0.033   -0.045  0.085  0.013

 Mode:                25                     26                     27
 Frequency:      1542.29                1936.88                2966.82
 Force Cnst:      1.5026                 2.5730                 5.4943
 Red. Mass:       1.0722                 1.1641                 1.0594
 IR Active:          YES                    YES                    YES
 IR Intens:       41.483                355.651                 59.194
 Raman Active:       YES                    YES                    YES
               X      Y      Z        X      Y      Z        X      Y      Z
 C          0.007  0.009  0.020    0.004 -0.036  0.021   -0.000  0.001 -0.000
 O          0.004  0.004  0.005    0.001  0.005  0.000   -0.001 -0.001 -0.001
 C         -0.018 -0.001 -0.014   -0.010 -0.007  0.000    0.028 -0.043 -0.045
 C          0.026 -0.023  0.016    0.017 -0.023  0.027    0.001  0.000  0.002
 O         -0.016  0.044  0.015   -0.046  0.005 -0.076    0.000 -0.000  0.001
 H         -0.075 -0.097  0.116   -0.058  0.029 -0.037    0.000  0.002  0.008
 H         -0.145 -0.056 -0.169   -0.083  0.042 -0.075   -0.001 -0.008 -0.005
 H          0.635 -0.432 -0.280    0.602  0.456  0.604   -0.003  0.000 -0.007
 H          0.042  0.046  0.016    0.005 -0.006  0.016   -0.482  0.150  0.729
 H          0.016  0.022  0.071    0.056 -0.020  0.014    0.167  0.390 -0.169
 H         -0.054  0.095  0.047    0.034  0.054 -0.002   -0.012 -0.012 -0.019
 H         -0.118 -0.036 -0.044   -0.029 -0.030  0.011    0.006  0.000 -0.011
 H         -0.274 -0.133 -0.333    0.063  0.103  0.093    0.000  0.000  0.000
 TransDip   0.005 -0.205  0.022    0.035 -0.474  0.372    0.041 -0.187 -0.155

 Mode:                28                     29                     30
 Frequency:      2976.93                2999.55                3128.04
 Force Cnst:      5.5554                 5.8157                 6.3241
 Red. Mass:       1.0640                 1.0971                 1.0970
 IR Active:          YES                    YES                    YES
 IR Intens:       82.907                 15.595                 37.887
 Raman Active:       YES                    YES                    YES
               X      Y      Z        X      Y      Z        X      Y      Z
 C         -0.060 -0.012  0.035    0.010  0.002 -0.007    0.004 -0.053 -0.073
 O         -0.001 -0.002  0.000    0.001  0.000  0.001   -0.001  0.000 -0.000
 C         -0.006 -0.008  0.009   -0.046 -0.055  0.053    0.001  0.001  0.000
 C         -0.000 -0.000 -0.000    0.001 -0.002  0.001    0.000 -0.000 -0.000
 O         -0.000  0.000 -0.001    0.000  0.000  0.000   -0.000 -0.000 -0.000
 H          0.016  0.182  0.205   -0.005 -0.025 -0.030    0.154  0.619  0.722
 H          0.715 -0.014 -0.619   -0.116  0.005  0.106   -0.204 -0.000  0.147
 H         -0.004  0.003  0.009   -0.002  0.001 -0.004    0.011 -0.000  0.002
 H          0.034 -0.021 -0.063    0.238 -0.097 -0.352    0.003  0.002 -0.002
 H          0.046  0.122 -0.048    0.295  0.775 -0.297   -0.005 -0.006  0.001
 H          0.000 -0.000  0.001   -0.007 -0.005 -0.012   -0.005 -0.002 -0.005
 H          0.000  0.001  0.003   -0.005  0.006  0.015   -0.004  0.003  0.006
 H          0.002  0.000  0.000   -0.001  0.001 -0.001   -0.001 -0.001  0.001
 TransDip  -0.243 -0.113  0.115   -0.048 -0.085  0.081    0.009 -0.129 -0.149

 Mode:                31                     32                     33
 Frequency:      3165.16                3271.85                3824.89
 Force Cnst:      6.2357                 7.0329                 9.1852
 Red. Mass:       1.0564                 1.1151                 1.0656
 IR Active:          YES                    YES                    YES
 IR Intens:       15.204                  6.634                 39.326
 Raman Active:       YES                    YES                    YES
               X      Y      Z        X      Y      Z        X      Y      Z
 C          0.000 -0.001 -0.001   -0.000 -0.000  0.000   -0.000  0.000  0.000
 O          0.000 -0.000  0.000    0.000  0.000  0.001   -0.000 -0.000  0.000
 C          0.002 -0.004  0.001    0.000 -0.001 -0.003    0.000  0.000 -0.000
 C         -0.065  0.005 -0.009   -0.004 -0.046 -0.087    0.000 -0.001  0.001
 O          0.001  0.000  0.000    0.000  0.000  0.001    0.043 -0.043 -0.011
 H          0.000  0.006  0.006   -0.001 -0.002 -0.002    0.001 -0.000  0.001
 H         -0.004 -0.000  0.003   -0.003  0.000 -0.001    0.000  0.000 -0.002
 H         -0.006  0.001 -0.008   -0.006  0.002 -0.009   -0.004 -0.020 -0.024
 H         -0.002  0.001  0.001   -0.015  0.005  0.017   -0.000  0.000 -0.001
 H          0.004  0.022 -0.009    0.002  0.005 -0.001   -0.001 -0.000 -0.000
 H          0.540  0.229  0.570    0.376  0.154  0.388    0.001  0.002 -0.001
 H          0.202 -0.270 -0.461   -0.309  0.388  0.655   -0.001  0.001  0.001
 H         -0.002 -0.002  0.001    0.002  0.000 -0.001   -0.680  0.705  0.187
 TransDip  -0.111 -0.036 -0.044   -0.059 -0.028 -0.051   -0.107  0.168 -0.026

 STANDARD THERMODYNAMIC QUANTITIES AT   298.15 K  AND     1.00 ATM

   This Molecule has  1 Imaginary Frequencies
   Zero point vibrational energy:       66.628 kcal/mol

   Atom    1 Element C  Has Mass   12.00000
   Atom    2 Element O  Has Mass   15.99491
   Atom    3 Element C  Has Mass   12.00000
   Atom    4 Element C  Has Mass   12.00000
   Atom    5 Element O  Has Mass   15.99491
   Atom    6 Element H  Has Mass    1.00783
   Atom    7 Element H  Has Mass    1.00783
   Atom    8 Element H  Has Mass    1.00783
   Atom    9 Element H  Has Mass    1.00783
   Atom   10 Element H  Has Mass    1.00783
   Atom   11 Element H  Has Mass    1.00783
   Atom   12 Element H  Has Mass    1.00783
   Atom   13 Element H  Has Mass    1.00783
   Molecular Mass:    76.052460 amu
   Principal axes and moments of inertia in amu*Bohr^2:
                             1           2           3
    Eigenvalues --      238.77158   487.69082   652.46976
          X               0.51230     0.62741    -0.58643
          Y              -0.55549     0.76285     0.33089
          Z               0.65496     0.15625     0.73933
   Rotational Symmetry Number is   1
   The Molecule is an Asymmetric Top
   Translational Enthalpy:        0.889 kcal/mol
   Rotational Enthalpy:           0.889 kcal/mol
   Vibrational Enthalpy:         68.561 kcal/mol
   gas constant (RT):             0.592 kcal/mol
   Translational Entropy:        38.902  cal/mol.K
   Rotational Entropy:           25.833  cal/mol.K
   Vibrational Entropy:          10.386  cal/mol.K

   Total Enthalpy:               70.931 kcal/mol
   Total Entropy:                75.121  cal/mol.K
Archival summary:
1\1\nid00491\FREQ\ProcedureUnspecified\BasisUnspecified\238\cgrambow\WedFeb1300:29:032019WedFeb1300:29:032019\0\\#,FREQ,ProcedureUnspecified,BasisUnspecified,\\0,1\O\C,1,1.38295\H,2,1.1024,1,112.427\H,2,1.10275,1,110.942,3,120.03,0\C,1,1.42127,2,103.185,3,70.3541,0\H,5,1.09073,1,109.2,2,155.578,0\H,5,1.10132,1,110.217,2,-82.8834,0\C,2,1.49121,1,105.667,3,-121.086,0\H,8,1.08204,2,114.322,1,-39.142,0\H,8,1.08451,2,117.589,1,-179.438,0\H,5,1.68771,1,119.225,2,21.6082,0\O,11,1.05234,5,161.256,1,-23.6092,0\H,12,0.965068,11,108.385,5,137.856,0\\\@

 Total job time:  1456.84s(wall), 4863.57s(cpu) 
 Wed Feb 13 00:29:03 2019

        *************************************************************
        *                                                           *
        *  Thank you very much for using Q-Chem.  Have a nice day.  *
        *                                                           *
        *************************************************************


