
Running Job 1 of 2 prod_optfreq0255.in
qchem prod_optfreq0255.in_47123.0 /tmp/qchem47123/ 1
/global/common/cori/software/qchem/5.1/exe/qcprog.exe prod_optfreq0255.in_47123.0 /tmp/qchem47123/
Check license passed

                  Welcome to Q-Chem
     A Quantum Leap Into The Future Of Chemistry


 Q-Chem 5.1, Q-Chem, Inc., Pleasanton, CA (2018)

 Yihan Shao,  Zhengting Gan,  E. Epifanovsky,  A. T. B. Gilbert,  M. Wormit,  
 J. Kussmann,  A. W. Lange,  A. Behn,  Jia Deng,  Xintian Feng,  D. Ghosh,  
 M. Goldey,  P. R. Horn,  L. D. Jacobson,  I. Kaliman,  T. Kus,  A. Landau,  
 Jie Liu,  E. I. Proynov,  R. M. Richard,  R. P. Steele,  E. J. Sundstrom,  
 H. L. Woodcock III,  P. M. Zimmerman,  D. Zuev,  B. Albrecht,  E. Alguire,  
 S. A. Baeppler,  D. Barton,  Z. Benda,  Y. A. Bernard,  E. J. Berquist,  
 K. B. Bravaya,  H. Burton,  D. Casanova,  Chun-Min Chang,  Yunqing Chen,  
 A. Chien,  K. D. Closser,  M. P. Coons,  S. Coriani,  S. Dasgupta,  
 A. L. Dempwolff,  M. Diedenhofen,  Hainam Do,  R. G. Edgar,  Po-Tung Fang,  
 S. Faraji,  S. Fatehi,  Qingguo Feng,  K. D. Fenk,  J. Fosso-Tande,  
 Qinghui Ge,  A. Ghysels,  G. Gidofalvi,  J. Gomes,  J. Gonthier,  A. Gunina,  
 D. Hait,  M. W. D. Hanson-Heine,  P. H. P. Harbach,  A. W. Hauser,  
 J. E. Herr,  E. G. Hohenstein,  Z. C. Holden,  Kerwin Hui,  B. C. Huynh,  
 T.-C. Jagau,  Hyunjun Ji,  B. Kaduk,  K. Khistyaev,  Jaehoon Kim,  
 P. Klunzinger,  K. Koh,  D. Kosenkov,  L. Koulias,  T. Kowalczyk,  
 C. M. Krauter,  A. Kunitsa,  Ka Un Lao,  A. Laurent,  K. V. Lawler,  
 Joonho Lee,  D. Lefrancois,  S. Lehtola,  D. S. Levine,  Yi-Pei Li,  
 You-Sheng Lin,  Fenglai Liu,  E. Livshits,  A. Luenser,  P. Manohar,  
 E. Mansoor,  S. F. Manzer,  Shan-Ping Mao,  Yuezhi Mao,  N. Mardirossian,  
 A. V. Marenich,  T. Markovich,  L. A. Martinez-Martinez,  S. A. Maurer,  
 N. J. Mayhall,  S. C. McKenzie,  J.-M. Mewes,  A. F. Morrison,  
 J. W. Mullinax,  K. Nanda,  T. S. Nguyen-Beck,  R. Olivares-Amaya,  
 J. A. Parkhill,  T. M. Perrine,  F. Plasser,  P. Pokhilko,  S. Prager,  
 A. Prociuk,  E. Ramos,  D. R. Rehn,  F. Rob,  M. Schneider,  N. Sergueev,  
 S. M. Sharada,  S. Sharma,  D. W. Small,  T. Stauch,  T. Stein,  
 Yu-Chuan Su,  A. J. W. Thom,  A. Tkatchenko,  T. Tsuchimochi,  N. M. Tubman,  
 L. Vogt,  M. L. Vidal,  O. Vydrov,  M. A. Watson,  J. Wenzel,  
 M. de Wergifosse,  T. A. Wesolowski,  A. White,  J. Witte,  A. Yamada,  
 Jun Yang,  K. Yao,  S. Yeganeh,  S. R. Yost,  Zhi-Qiang You,  A. Zech,  
 Igor Ying Zhang,  Xing Zhang,  Yan Zhao,  Ying Zhu,  B. R. Brooks,  
 G. K. L. Chan,  C. J. Cramer,  M. S. Gordon,  W. J. Hehre,  A. Klamt,  
 M. W. Schmidt,  C. D. Sherrill,  D. G. Truhlar,  A. Aspuru-Guzik,  R. Baer,  
 A. T. Bell,  N. A. Besley,  Jeng-Da Chai,  R. A. DiStasio Jr.,  A. Dreuw,  
 B. D. Dunietz,  T. R. Furlani,  Chao-Ping Hsu,  Yousung Jung,  Jing Kong,  
 D. S. Lambrecht,  WanZhen Liang,  C. Ochsenfeld,  V. A. Rassolov,  
 L. V. Slipchenko,  J. E. Subotnik,  T. Van Voorhis,  J. M. Herbert,  
 A. I. Krylov,  P. M. W. Gill,  M. Head-Gordon

 Contributors to earlier versions of Q-Chem not listed above: 
 R. D. Adamson,  B. Austin,  J. Baker,  G. J. O. Beran,  K. Brandhorst,  
 S. T. Brown,  E. F. C. Byrd,  A. K. Chakraborty,  C.-L. Cheng,  
 Siu Hung Chien,  D. M. Chipman,  D. L. Crittenden,  H. Dachsel,  
 R. J. Doerksen,  A. D. Dutoi,  L. Fusti-Molnar,  W. A. Goddard III,  
 A. Golubeva-Zadorozhnaya,  S. R. Gwaltney,  G. Hawkins,  A. Heyden,  
 S. Hirata,  G. Kedziora,  F. J. Keil,  C. Kelley,  Jihan Kim,  R. A. King,  
 R. Z. Khaliullin,  P. P. Korambath,  W. Kurlancheek,  A. M. Lee,  M. S. Lee,  
 S. V. Levchenko,  Ching Yeh Lin,  D. Liotard,  R. C. Lochan,  I. Lotan,  
 P. E. Maslen,  N. Nair,  D. P. O'Neill,  D. Neuhauser,  E. Neuscamman,  
 C. M. Oana,  R. Olson,  B. Peters,  R. Peverati,  P. A. Pieniazek,  
 Y. M. Rhee,  J. Ritchie,  M. A. Rohrdanz,  E. Rosta,  N. J. Russ,  
 H. F. Schaefer III,  N. E. Schultz,  N. Shenvi,  A. C. Simmonett,  A. Sodt,  
 D. Stuck,  K. S. Thanthiriwatte,  V. Vanovschi,  Tao Wang,  A. Warshel,  
 C. F. Williams,  Q. Wu,  X. Xu,  W. Zhang

 Please cite Q-Chem as follows:
 Y. Shao et al., Mol. Phys. 113, 184-215 (2015)
 DOI: 10.1080/00268976.2014.952696

 Q-Chem 5.1.0 for Intel X86 EM64T Linux

 Parts of Q-Chem use Armadillo 8.300.2 (Tropical Shenanigans).
 http://arma.sourceforge.net/

 Q-Chem begins on Tue Feb 12 23:20:15 2019  

Host: cori07
0

     Scratch files written to /tmp/qchem47123//
 Jun2518 |scratch|qcdevops|jenkins|workspace|build_RNUM -1
Processing $rem in /global/common/cori/software/qchem/5.1/config/preferences.
 MEM_TOTAL  96000 

Checking the input file for inconsistencies... 	...done.

--------------------------------------------------------------
User input:
--------------------------------------------------------------
$molecule
0 1
C   1.5809863800   0.6726539810   0.2465480750
O   0.2818916196   0.2671820920   0.7111206682
C  -0.1045698089  -0.9832733621   0.3072818403
C  -1.3940179853  -1.3316631972   0.1798159651
O  -1.0370335810   1.6027507232  -1.4896465441
H   1.8212311026   1.5959039809   0.7829240157
H   2.3362864335  -0.0943997626   0.4774371226
H   1.5523681541   0.8681206393  -0.8343068229
H  -1.2264900855   0.7021129905  -1.8072065391
H   0.7129778441  -1.6862452303   0.1165867802
H  -1.6542027819  -2.3570797113  -0.0708081625
H  -2.1991480514  -0.6245734737   0.3737455796
H  -0.8312472396   1.4424573304  -0.5491539781
$end

$rem
JOBTYPE                   OPT
METHOD                    wB97X-D3
BASIS                     def2-TZVP
UNRESTRICTED              TRUE
SCF_ALGORITHM             DIIS
MAX_SCF_CYCLES            100
SCF_CONVERGENCE           8
SYM_IGNORE                TRUE
SYMMETRY                  FALSE
GEOM_OPT_MAX_CYCLES       100
GEOM_OPT_TOL_GRADIENT     100
GEOM_OPT_TOL_DISPLACEMENT 400
GEOM_OPT_TOL_ENERGY       33
WAVEFUNCTION_ANALYSIS     FALSE
$end

--------------------------------------------------------------
 Adding empirical dispersion correction 
 ----------------------------------------------------------------
 Doing -D3(0) with
 s6  =   1.00000
 s8  =   1.00000
 rs6 =   1.28100
 rs8 =   1.09400
 -D3 energy without 3body term =     -0.0033240749 hartrees
 ----------------------------------------------------------------
             Standard Nuclear Orientation (Angstroms)
    I     Atom           X                Y                Z
 ----------------------------------------------------------------
    1      C       1.5809863800     0.6726539810     0.2465480750
    2      O       0.2818916196     0.2671820920     0.7111206682
    3      C      -0.1045698089    -0.9832733621     0.3072818403
    4      C      -1.3940179853    -1.3316631972     0.1798159651
    5      O      -1.0370335810     1.6027507232    -1.4896465441
    6      H       1.8212311026     1.5959039809     0.7829240157
    7      H       2.3362864335    -0.0943997626     0.4774371226
    8      H       1.5523681541     0.8681206393    -0.8343068229
    9      H      -1.2264900855     0.7021129905    -1.8072065391
   10      H       0.7129778441    -1.6862452303     0.1165867802
   11      H      -1.6542027819    -2.3570797113    -0.0708081625
   12      H      -2.1991480514    -0.6245734737     0.3737455796
   13      H      -0.8312472396     1.4424573304    -0.5491539781
 ----------------------------------------------------------------
 Nuclear Repulsion Energy =   181.4565988163 hartrees
 There are       21 alpha and       21 beta electrons
 Requested basis set is def2-TZVP
 There are 87 shells and 203 basis functions

 Total QAlloc Memory Limit  96000 MB
 Mega-Array Size       188 MB
 MEM_STATIC part       192 MB
 A cutoff of  1.0D-11 yielded   3560 shell pairs
 There are     19874 function pairs (     25216 Cartesian)
 
 -------------------------------------------------------
 OpenMP Integral Computing Module                       
 Release: version 1.0, May 2013, Q-Chem Inc. Pittsburgh 
 -------------------------------------------------------
 Integral Job Info:
 Integral job number is                      11
 Integral operator is                         1
 short-range coefficients              19572800
 long-range coefficients              100000000
 Omega coefficients                         250
 if combine SR and LR in K                    1
 Integral screening is                        0
 Integral computing path is                   2
 max size of driver memory is            800000
 size of driver memory is                776718
 size of scratch memory is              4473992
 max col of scratch BK array              10000
 max len of scratch array in speh3          662
 max len of scratch index in speh4           32
 max int batch size is                      520
 min int batch size is                       52
 fixed nKL is                                52
 max L of basis functions is                  3
 order of int derivative is                   0
 number of shells is                         87
 number of basis is                         228
 number of cartesian basis is               228
 number of contracted shell pairs          3560
 number of primitive shell pairs           7952
 maxK2 (contraction) of shell pair           36
 max number of K2 of shell pair               1
 max number of CS2 of shell pair            578
 max number of PS2 of shell pair           1002
 mem total for path MDJ                  565364
 -------------------------------------------------------
 Smallest overlap matrix eigenvalue = 1.83E-04

 Scale SEOQF with 1.000000e-01/1.000000e-01/1.000000e-01

 Standard Electronic Orientation quadrupole field applied
 Nucleus-field energy     =     0.0000000030 hartrees
 Guess from superposition of atomic densities
 Warning:  Energy on first SCF cycle will be non-variational
 SAD guess density has 42.000000 electrons

 -----------------------------------------------------------------------
  General SCF calculation program by
  Eric Jon Sundstrom, Paul Horn, Yuezhi Mao, Dmitri Zuev, Alec White,
  David Stuck, Shaama M.S., Shane Yost, Joonho Lee, David Small,
  Daniel Levine, Susi Lehtola, Hugh Burton, Evgeny Epifanovsky
 -----------------------------------------------------------------------
 Exchange:     0.1957 Hartree-Fock + 1.0000 wB97X-D3 + LR-HF
 Correlation:  1.0000 wB97X-D3
 Using SG-2 standard quadrature grid
 Dispersion:   Grimme D3
 using 16 threads for integral computing
 -------------------------------------------------------
 OpenMP Integral computing Module                
 Release: version 1.0, May 2013, Q-Chem Inc. Pittsburgh 
 -------------------------------------------------------
 using 16 threads for integral computing
 -------------------------------------------------------
 OpenMP Integral computing Module                
 Release: version 1.0, May 2013, Q-Chem Inc. Pittsburgh 
 -------------------------------------------------------
 -------------------------------------------------------
 OpenMP BLAS3 based DFT computing Module                
 Release: version 1.0, May 2013, Q-Chem Inc. Pittsburgh 
 -------------------------------------------------------
 A unrestricted SCF calculation will be
 performed using DIIS
 SCF converges when DIIS error is below 1.0e-08
 ---------------------------------------
  Cycle       Energy         DIIS error
 ---------------------------------------
    1    -270.1861689331      1.81e-02  
    2    -269.4719995000      2.46e-03  
    3    -269.4907370500      2.45e-03  
    4    -269.5718319017      1.89e-04  
    5    -269.5724291980      6.99e-05  
    6    -269.5725236110      2.26e-05  
    7    -269.5725333746      6.83e-06  
    8    -269.5725345238      2.94e-06  
    9    -269.5725347236      9.50e-07  
   10    -269.5725347455      3.96e-07  
   11    -269.5725347497      9.55e-08  
   12    -269.5725347500      3.24e-08  
   13    -269.5725347500      7.48e-09  Convergence criterion met
 ---------------------------------------
 SCF time:   CPU 368.14s  wall 26.00s 
<S^2> =          0.000000000
 SCF   energy in the final basis set =     -269.5725347500
 Total energy in the final basis set =     -269.5725347500
 No wavefunction analysis requested
 Calculating analytic gradient of the SCF energy
 Gradient of SCF Energy
            1           2           3           4           5           6
    1   0.0046336  -0.0053220   0.0130173  -0.0152707   0.0008693   0.0006417
    2   0.0016053   0.0080921  -0.0009894  -0.0039193   0.0153508   0.0039388
    3  -0.0033598   0.0066104   0.0003402  -0.0032511  -0.0072198   0.0025537
            7           8           9          10          11          12
    1   0.0038664  -0.0004236  -0.0018554   0.0033484  -0.0020105  -0.0035997
    2  -0.0031590   0.0008436  -0.0126965  -0.0032272  -0.0045555   0.0024648
    3   0.0008346  -0.0041970  -0.0022638  -0.0009530  -0.0004207   0.0002983
           13
    1   0.0021052
    2  -0.0037484
    3   0.0110280
 Max gradient component =       1.535E-02
 RMS gradient           =       5.849E-03
 Gradient time:  CPU 69.36 s  wall 5.92 s
 Geometry Optimization Parameters
   NAtoms,    NIC,     NZ,  NCons,   NDum,   NFix, NCnnct, MaxDiis
       13      72       0       0       0       0       0       0


** GEOMETRY OPTIMIZATION IN DELOCALIZED INTERNAL COORDINATES **
   Searching for a Minimum

   Optimization Cycle:   1

                       Coordinates (Angstroms)
     ATOM                X               Y               Z
      1  C         1.5809863800    0.6726539810    0.2465480750
      2  O         0.2818916196    0.2671820920    0.7111206682
      3  C        -0.1045698089   -0.9832733621    0.3072818403
      4  C        -1.3940179853   -1.3316631972    0.1798159651
      5  O        -1.0370335810    1.6027507232   -1.4896465441
      6  H         1.8212311026    1.5959039809    0.7829240157
      7  H         2.3362864335   -0.0943997626    0.4774371226
      8  H         1.5523681541    0.8681206393   -0.8343068229
      9  H        -1.2264900855    0.7021129905   -1.8072065391
     10  H         0.7129778441   -1.6862452303    0.1165867802
     11  H        -1.6542027819   -2.3570797113   -0.0708081625
     12  H        -2.1991480514   -0.6245734737    0.3737455796
     13  H        -0.8312472396    1.4424573304   -0.5491539781
   Point Group: c1    Number of degrees of freedom:    33


   Energy is   -269.572534750


 Attempting to Generate Delocalized Internal Coordinates

 33 Hessian modes will be used to form the next step
  Hessian Eigenvalues:
     0.002000    0.010617    0.011470    0.019654    0.025245    0.030112
     0.030217    0.039597    0.044826    0.074987    0.080379    0.114212
     0.159978    0.160000    0.160000    0.160000    0.160000    0.160000
     0.160000    0.160000    0.172822    0.220006    0.335739    0.338196
     0.342467    0.343041    0.349339    0.351391    0.398592    0.510343
     0.521704    0.526492    0.568141

 Minimum Search - Taking Simple RFO Step
 Searching for Lamda that Minimizes Along All modes
 Value Taken    Lamda =  -0.00274789
 Step Taken.  Stepsize is  0.134179

                             Maximum     Tolerance    Cnvgd?
         Gradient           0.015754      0.000100      NO
         Displacement       0.052797      0.000400      NO
         Energy change     *********      0.000000      NO


 New Cartesian Coordinates Obtained by Inverse Iteration

 Displacement from previous Coordinates is:  0.291989
 Adding empirical dispersion correction 
 ----------------------------------------------------------------
 Doing -D3(0) with
 s6  =   1.00000
 s8  =   1.00000
 rs6 =   1.28100
 rs8 =   1.09400
 -D3 energy without 3body term =     -0.0033017756 hartrees
 ----------------------------------------------------------------
             Standard Nuclear Orientation (Angstroms)
    I     Atom           X                Y                Z
 ----------------------------------------------------------------
    1      C       1.5766983720     0.6538278767     0.2609292717
    2      O       0.2767630106     0.2646055123     0.6947899134
    3      C      -0.0985030511    -0.9783750703     0.2983918695
    4      C      -1.3672932771    -1.3333669027     0.1970324816
    5      O      -1.0522980098     1.6219760417    -1.5183765470
    6      H       1.8155626561     1.5732301034     0.7898248337
    7      H       2.3095423279    -0.1158983802     0.5165872439
    8      H       1.5784623227     0.8365803534    -0.8157597215
    9      H      -1.2968437843     0.7505565113    -1.8406798931
   10      H       0.7185635641    -1.6690154817     0.1022239721
   11      H      -1.6160407337    -2.3520237720    -0.0611852710
   12      H      -2.1692804857    -0.6386219153     0.4112067609
   13      H      -0.8363009113     1.4604721235    -0.5906469141
 ----------------------------------------------------------------
 Nuclear Repulsion Energy =   182.1568486032 hartrees
 There are       21 alpha and       21 beta electrons
 Applying Cartesian multipole field
    Component          Value
    ---------          -----
     (2,0,0)        1.00000E-11
     (0,2,0)        2.00000E-11
     (0,0,2)       -3.00000E-11
 Nucleus-field energy     =     0.0000000029 hartrees
 Requested basis set is def2-TZVP
 There are 87 shells and 203 basis functions
 A cutoff of  1.0D-11 yielded   3558 shell pairs
 There are     19846 function pairs (     25182 Cartesian)
 Smallest overlap matrix eigenvalue = 1.56E-04
 Guess MOs from SCF MO coefficient file
 Reading MOs from coefficient file
 Reading MOs from coefficient file

 -----------------------------------------------------------------------
  General SCF calculation program by
  Eric Jon Sundstrom, Paul Horn, Yuezhi Mao, Dmitri Zuev, Alec White,
  David Stuck, Shaama M.S., Shane Yost, Joonho Lee, David Small,
  Daniel Levine, Susi Lehtola, Hugh Burton, Evgeny Epifanovsky
 -----------------------------------------------------------------------
 Exchange:     0.1957 Hartree-Fock + 1.0000 wB97X-D3 + LR-HF
 Correlation:  1.0000 wB97X-D3
 Using SG-2 standard quadrature grid
 Dispersion:   Grimme D3
 using 16 threads for integral computing
 -------------------------------------------------------
 OpenMP Integral computing Module                
 Release: version 1.0, May 2013, Q-Chem Inc. Pittsburgh 
 -------------------------------------------------------
 using 16 threads for integral computing
 -------------------------------------------------------
 OpenMP Integral computing Module                
 Release: version 1.0, May 2013, Q-Chem Inc. Pittsburgh 
 -------------------------------------------------------
 -------------------------------------------------------
 OpenMP BLAS3 based DFT computing Module                
 Release: version 1.0, May 2013, Q-Chem Inc. Pittsburgh 
 -------------------------------------------------------
 A unrestricted SCF calculation will be
 performed using DIIS
 SCF converges when DIIS error is below 1.0e-08
 ---------------------------------------
  Cycle       Energy         DIIS error
 ---------------------------------------
    1    -269.6093349901      4.55e-04  
    2    -269.5738302982      8.45e-05  
    3    -269.5739463122      6.53e-05  
    4    -269.5740204147      1.59e-05  
    5    -269.5740252747      6.77e-06  
    6    -269.5740263599      1.95e-06  
    7    -269.5740264623      7.75e-07  
    8    -269.5740264789      1.89e-07  
    9    -269.5740264806      4.60e-08  
   10    -269.5740264807      1.98e-08  
   11    -269.5740264807      5.48e-09  Convergence criterion met
 ---------------------------------------
 SCF time:   CPU 323.48s  wall 23.00s 
<S^2> =         -0.000000000
 SCF   energy in the final basis set =     -269.5740264807
 Total energy in the final basis set =     -269.5740264807
 No wavefunction analysis requested
 Calculating analytic gradient of the SCF energy
 Gradient of SCF Energy
            1           2           3           4           5           6
    1   0.0028463  -0.0028040  -0.0009903   0.0020955   0.0002242  -0.0006733
    2   0.0006026   0.0011144  -0.0022212   0.0017035   0.0018685  -0.0002836
    3  -0.0028080   0.0019971  -0.0014464  -0.0004915  -0.0023514   0.0003038
            7           8           9          10          11          12
    1  -0.0007326  -0.0005812  -0.0000717  -0.0003383   0.0003446   0.0001692
    2  -0.0002494  -0.0001080  -0.0014180   0.0000066   0.0000735  -0.0000628
    3   0.0002159   0.0004098   0.0004322   0.0005648   0.0002908  -0.0000208
           13
    1   0.0005116
    2  -0.0010262
    3   0.0029037
 Max gradient component =       2.904E-03
 RMS gradient           =       1.325E-03
 Gradient time:  CPU 68.87 s  wall 4.96 s
 Geometry Optimization Parameters
   NAtoms,    NIC,     NZ,  NCons,   NDum,   NFix, NCnnct, MaxDiis
       13      72       0       0       0       0       0       0

 Cartesian Hessian Update
 Hessian Updated using BFGS Update


** GEOMETRY OPTIMIZATION IN DELOCALIZED INTERNAL COORDINATES **
   Searching for a Minimum

   Optimization Cycle:   2

                       Coordinates (Angstroms)
     ATOM                X               Y               Z
      1  C         1.5766983720    0.6538278767    0.2609292717
      2  O         0.2767630106    0.2646055123    0.6947899134
      3  C        -0.0985030511   -0.9783750703    0.2983918695
      4  C        -1.3672932771   -1.3333669027    0.1970324816
      5  O        -1.0522980098    1.6219760417   -1.5183765470
      6  H         1.8155626561    1.5732301034    0.7898248337
      7  H         2.3095423279   -0.1158983802    0.5165872439
      8  H         1.5784623227    0.8365803534   -0.8157597215
      9  H        -1.2968437843    0.7505565113   -1.8406798931
     10  H         0.7185635641   -1.6690154817    0.1022239721
     11  H        -1.6160407337   -2.3520237720   -0.0611852710
     12  H        -2.1692804857   -0.6386219153    0.4112067609
     13  H        -0.8363009113    1.4604721235   -0.5906469141
   Point Group: c1    Number of degrees of freedom:    33


   Energy is   -269.574026481

 Hessian Updated using BFGS Update

 28 Hessian modes will be used to form the next step
  Hessian Eigenvalues:
     0.002011    0.010600    0.011460    0.018494    0.025268    0.029952
     0.030211    0.037746    0.044131    0.074978    0.080413    0.113859
     0.151170    0.159978    0.161381    0.175024    0.220468    0.336336
     0.339203    0.342753    0.345550    0.350069    0.354876    0.391145
     0.501252    0.514909    0.525289    0.645575

 Minimum Search - Taking Simple RFO Step
 Searching for Lamda that Minimizes Along All modes
 Value Taken    Lamda =  -0.00031768
 Step Taken.  Stepsize is  0.101779

                             Maximum     Tolerance    Cnvgd?
         Gradient           0.003168      0.000100      NO
         Displacement       0.056020      0.000400      NO
         Energy change     -0.001492      0.000000      NO


 New Cartesian Coordinates Obtained by Inverse Iteration

 Displacement from previous Coordinates is:  0.228322
 Adding empirical dispersion correction 
 ----------------------------------------------------------------
 Doing -D3(0) with
 s6  =   1.00000
 s8  =   1.00000
 rs6 =   1.28100
 rs8 =   1.09400
 -D3 energy without 3body term =     -0.0032863417 hartrees
 ----------------------------------------------------------------
             Standard Nuclear Orientation (Angstroms)
    I     Atom           X                Y                Z
 ----------------------------------------------------------------
    1      C       1.5797161119     0.6494653806     0.2702936573
    2      O       0.2764601689     0.2588710549     0.6814187848
    3      C      -0.1015888507    -0.9835616486     0.2919035864
    4      C      -1.3694639790    -1.3525529906     0.2230983668
    5      O      -1.0571563035     1.6519106985    -1.5371824131
    6      H       1.8113988292     1.5728851268     0.7946775427
    7      H       2.3140558361    -0.1131549254     0.5409460753
    8      H       1.6043768378     0.8267014492    -0.8070541664
    9      H      -1.3007081185     0.7952384910    -1.8905760481
   10      H       0.7161622927    -1.6657807460     0.0714427044
   11      H      -1.6160476763    -2.3697903165    -0.0410887837
   12      H      -2.1722011734    -0.6672897977     0.4616043981
   13      H      -0.8459719750     1.4710052238    -0.6151457046
 ----------------------------------------------------------------
 Nuclear Repulsion Energy =   181.5270492458 hartrees
 There are       21 alpha and       21 beta electrons
 Applying Cartesian multipole field
    Component          Value
    ---------          -----
     (2,0,0)        1.00000E-11
     (0,2,0)        2.00000E-11
     (0,0,2)       -3.00000E-11
 Nucleus-field energy     =     0.0000000029 hartrees
 Requested basis set is def2-TZVP
 There are 87 shells and 203 basis functions
 A cutoff of  1.0D-11 yielded   3551 shell pairs
 There are     19801 function pairs (     25131 Cartesian)
 Smallest overlap matrix eigenvalue = 1.56E-04
 Guess MOs from SCF MO coefficient file
 Reading MOs from coefficient file
 Reading MOs from coefficient file

 -----------------------------------------------------------------------
  General SCF calculation program by
  Eric Jon Sundstrom, Paul Horn, Yuezhi Mao, Dmitri Zuev, Alec White,
  David Stuck, Shaama M.S., Shane Yost, Joonho Lee, David Small,
  Daniel Levine, Susi Lehtola, Hugh Burton, Evgeny Epifanovsky
 -----------------------------------------------------------------------
 Exchange:     0.1957 Hartree-Fock + 1.0000 wB97X-D3 + LR-HF
 Correlation:  1.0000 wB97X-D3
 Using SG-2 standard quadrature grid
 Dispersion:   Grimme D3
 using 16 threads for integral computing
 -------------------------------------------------------
 OpenMP Integral computing Module                
 Release: version 1.0, May 2013, Q-Chem Inc. Pittsburgh 
 -------------------------------------------------------
 using 16 threads for integral computing
 -------------------------------------------------------
 OpenMP Integral computing Module                
 Release: version 1.0, May 2013, Q-Chem Inc. Pittsburgh 
 -------------------------------------------------------
 -------------------------------------------------------
 OpenMP BLAS3 based DFT computing Module                
 Release: version 1.0, May 2013, Q-Chem Inc. Pittsburgh 
 -------------------------------------------------------
 A unrestricted SCF calculation will be
 performed using DIIS
 SCF converges when DIIS error is below 1.0e-08
 ---------------------------------------
  Cycle       Energy         DIIS error
 ---------------------------------------
    1    -269.5791701071      3.30e-04  
    2    -269.5741603200      4.01e-05  
    3    -269.5742194740      2.48e-05  
    4    -269.5742305234      1.25e-05  
    5    -269.5742342173      2.80e-06  
    6    -269.5742345217      9.90e-07  
    7    -269.5742345538      3.70e-07  
    8    -269.5742345587      1.23e-07  
    9    -269.5742345592      2.80e-08  
   10    -269.5742345593      8.29e-09  Convergence criterion met
 ---------------------------------------
 SCF time:   CPU 295.75s  wall 20.00s 
<S^2> =          0.000000000
 SCF   energy in the final basis set =     -269.5742345593
 Total energy in the final basis set =     -269.5742345593
 No wavefunction analysis requested
 Calculating analytic gradient of the SCF energy
 Gradient of SCF Energy
            1           2           3           4           5           6
    1   0.0012110  -0.0005373  -0.0016346   0.0011707  -0.0000240   0.0000124
    2   0.0009260  -0.0005811  -0.0007088   0.0003217  -0.0013553  -0.0004630
    3  -0.0011460   0.0004458  -0.0006568  -0.0002961  -0.0001713  -0.0001845
            7           8           9          10          11          12
    1  -0.0005869  -0.0002288   0.0004020  -0.0003060   0.0001031   0.0003665
    2   0.0003606  -0.0001015   0.0009203   0.0003026   0.0003536  -0.0003106
    3  -0.0000948   0.0006129   0.0002366   0.0007301   0.0001100  -0.0000064
           13
    1   0.0000519
    2   0.0003354
    3   0.0004203
 Max gradient component =       1.635E-03
 RMS gradient           =       6.227E-04
 Gradient time:  CPU 68.59 s  wall 4.85 s
 Geometry Optimization Parameters
   NAtoms,    NIC,     NZ,  NCons,   NDum,   NFix, NCnnct, MaxDiis
       13      72       0       0       0       0       0       0

 Cartesian Hessian Update
 Hessian Updated using BFGS Update


** GEOMETRY OPTIMIZATION IN DELOCALIZED INTERNAL COORDINATES **
   Searching for a Minimum

   Optimization Cycle:   3

                       Coordinates (Angstroms)
     ATOM                X               Y               Z
      1  C         1.5797161119    0.6494653806    0.2702936573
      2  O         0.2764601689    0.2588710549    0.6814187848
      3  C        -0.1015888507   -0.9835616486    0.2919035864
      4  C        -1.3694639790   -1.3525529906    0.2230983668
      5  O        -1.0571563035    1.6519106985   -1.5371824131
      6  H         1.8113988292    1.5728851268    0.7946775427
      7  H         2.3140558361   -0.1131549254    0.5409460753
      8  H         1.6043768378    0.8267014492   -0.8070541664
      9  H        -1.3007081185    0.7952384910   -1.8905760481
     10  H         0.7161622927   -1.6657807460    0.0714427044
     11  H        -1.6160476763   -2.3697903165   -0.0410887837
     12  H        -2.1722011734   -0.6672897977    0.4616043981
     13  H        -0.8459719750    1.4710052238   -0.6151457046
   Point Group: c1    Number of degrees of freedom:    33


   Energy is   -269.574234559

 Hessian Updated using BFGS Update

 29 Hessian modes will be used to form the next step
  Hessian Eigenvalues:
     0.002144    0.009277    0.010963    0.013974    0.025379    0.029992
     0.030279    0.034764    0.043634    0.075079    0.080392    0.109715
     0.149657    0.159980    0.160729    0.164871    0.185519    0.234570
     0.336594    0.339036    0.342707    0.345179    0.350240    0.354555
     0.387373    0.505927    0.522055    0.540914    0.623632

 Minimum Search - Taking Simple RFO Step
 Searching for Lamda that Minimizes Along All modes
 Value Taken    Lamda =  -0.00021188
 Step Taken.  Stepsize is  0.195439

                             Maximum     Tolerance    Cnvgd?
         Gradient           0.001202      0.000100      NO
         Displacement       0.090349      0.000400      NO
         Energy change     -0.000208      0.000000      NO


 New Cartesian Coordinates Obtained by Inverse Iteration

 Displacement from previous Coordinates is:  0.375341
 Adding empirical dispersion correction 
 ----------------------------------------------------------------
 Doing -D3(0) with
 s6  =   1.00000
 s8  =   1.00000
 rs6 =   1.28100
 rs8 =   1.09400
 -D3 energy without 3body term =     -0.0032552529 hartrees
 ----------------------------------------------------------------
             Standard Nuclear Orientation (Angstroms)
    I     Atom           X                Y                Z
 ----------------------------------------------------------------
    1      C       1.6008814532     0.6409171363     0.2963899254
    2      O       0.2851170757     0.2626527638     0.6634527437
    3      C      -0.0946732991    -0.9783188149     0.2765572541
    4      C      -1.3640740482    -1.3519020714     0.2266388399
    5      O      -1.0789336321     1.6424462230    -1.5815456913
    6      H       1.8184311942     1.5714699074     0.8154910510
    7      H       2.3258541930    -0.1185195475     0.6030093080
    8      H       1.6707471833     0.8051217334    -0.7822196701
    9      H      -1.4391305949     0.8041530180    -1.8728637841
   10      H       0.7212536685    -1.6560242459     0.0321778455
   11      H      -1.6128987336    -2.3663103053    -0.0475980630
   12      H      -2.1654549929    -0.6699650002     0.4812246297
   13      H      -0.8280874667     1.4882262035    -0.6663763890
 ----------------------------------------------------------------
 Nuclear Repulsion Energy =   180.9633181163 hartrees
 There are       21 alpha and       21 beta electrons
 Applying Cartesian multipole field
    Component          Value
    ---------          -----
     (2,0,0)        1.00000E-11
     (0,2,0)        2.00000E-11
     (0,0,2)       -3.00000E-11
 Nucleus-field energy     =     0.0000000028 hartrees
 Requested basis set is def2-TZVP
 There are 87 shells and 203 basis functions
 A cutoff of  1.0D-11 yielded   3546 shell pairs
 There are     19730 function pairs (     25032 Cartesian)
 Smallest overlap matrix eigenvalue = 1.56E-04
 Guess MOs from SCF MO coefficient file
 Reading MOs from coefficient file
 Reading MOs from coefficient file

 -----------------------------------------------------------------------
  General SCF calculation program by
  Eric Jon Sundstrom, Paul Horn, Yuezhi Mao, Dmitri Zuev, Alec White,
  David Stuck, Shaama M.S., Shane Yost, Joonho Lee, David Small,
  Daniel Levine, Susi Lehtola, Hugh Burton, Evgeny Epifanovsky
 -----------------------------------------------------------------------
 Exchange:     0.1957 Hartree-Fock + 1.0000 wB97X-D3 + LR-HF
 Correlation:  1.0000 wB97X-D3
 Using SG-2 standard quadrature grid
 Dispersion:   Grimme D3
 using 16 threads for integral computing
 -------------------------------------------------------
 OpenMP Integral computing Module                
 Release: version 1.0, May 2013, Q-Chem Inc. Pittsburgh 
 -------------------------------------------------------
 using 16 threads for integral computing
 -------------------------------------------------------
 OpenMP Integral computing Module                
 Release: version 1.0, May 2013, Q-Chem Inc. Pittsburgh 
 -------------------------------------------------------
 -------------------------------------------------------
 OpenMP BLAS3 based DFT computing Module                
 Release: version 1.0, May 2013, Q-Chem Inc. Pittsburgh 
 -------------------------------------------------------
 A unrestricted SCF calculation will be
 performed using DIIS
 SCF converges when DIIS error is below 1.0e-08
 ---------------------------------------
  Cycle       Energy         DIIS error
 ---------------------------------------
    1    -269.5695464453      4.41e-04  
    2    -269.5740353883      9.44e-05  
    3    -269.5742322082      7.02e-05  
    4    -269.5743011994      1.73e-05  
    5    -269.5743089801      4.51e-06  
    6    -269.5743095758      2.82e-06  
    7    -269.5743097285      5.33e-07  
    8    -269.5743097413      1.22e-07  
    9    -269.5743097422      5.89e-08  
   10    -269.5743097423      1.39e-08  
   11    -269.5743097423      5.32e-09  Convergence criterion met
 ---------------------------------------
 SCF time:   CPU 321.92s  wall 21.00s 
<S^2> =          0.000000000
 SCF   energy in the final basis set =     -269.5743097423
 Total energy in the final basis set =     -269.5743097423
 No wavefunction analysis requested
 Calculating analytic gradient of the SCF energy
 Gradient of SCF Energy
            1           2           3           4           5           6
    1  -0.0011708   0.0011565  -0.0001824  -0.0003424   0.0001213   0.0001976
    2   0.0001933  -0.0009870   0.0007997  -0.0004503  -0.0022900  -0.0001299
    3   0.0001071  -0.0004930   0.0004240  -0.0000362   0.0011302  -0.0001863
            7           8           9          10          11          12
    1   0.0000794   0.0001456   0.0000059   0.0002277  -0.0001138   0.0000246
    2   0.0001564   0.0001923   0.0012767  -0.0000534   0.0001141  -0.0000675
    3  -0.0000899   0.0001719  -0.0000742   0.0003026  -0.0001365  -0.0002147
           13
    1  -0.0001493
    2   0.0012454
    3  -0.0009050
 Max gradient component =       2.290E-03
 RMS gradient           =       6.439E-04
 Gradient time:  CPU 67.69 s  wall 4.81 s
 Geometry Optimization Parameters
   NAtoms,    NIC,     NZ,  NCons,   NDum,   NFix, NCnnct, MaxDiis
       13      72       0       0       0       0       0       0

 Cartesian Hessian Update
 Hessian Updated using BFGS Update


** GEOMETRY OPTIMIZATION IN DELOCALIZED INTERNAL COORDINATES **
   Searching for a Minimum

   Optimization Cycle:   4

                       Coordinates (Angstroms)
     ATOM                X               Y               Z
      1  C         1.6008814532    0.6409171363    0.2963899254
      2  O         0.2851170757    0.2626527638    0.6634527437
      3  C        -0.0946732991   -0.9783188149    0.2765572541
      4  C        -1.3640740482   -1.3519020714    0.2266388399
      5  O        -1.0789336321    1.6424462230   -1.5815456913
      6  H         1.8184311942    1.5714699074    0.8154910510
      7  H         2.3258541930   -0.1185195475    0.6030093080
      8  H         1.6707471833    0.8051217334   -0.7822196701
      9  H        -1.4391305949    0.8041530180   -1.8728637841
     10  H         0.7212536685   -1.6560242459    0.0321778455
     11  H        -1.6128987336   -2.3663103053   -0.0475980630
     12  H        -2.1654549929   -0.6699650002    0.4812246297
     13  H        -0.8280874667    1.4882262035   -0.6663763890
   Point Group: c1    Number of degrees of freedom:    33


   Energy is   -269.574309742

 Hessian Updated using BFGS Update

 30 Hessian modes will be used to form the next step
  Hessian Eigenvalues:
     0.003608    0.006195    0.011176    0.014711    0.025795    0.030214
     0.030863    0.035890    0.043784    0.075222    0.080441    0.106561
     0.150042    0.159980    0.160423    0.160718    0.165159    0.186265
     0.233748    0.336468    0.338493    0.342951    0.344973    0.349972
     0.353535    0.392287    0.508576    0.522937    0.534508    0.628499

 Minimum Search - Taking Simple RFO Step
 Searching for Lamda that Minimizes Along All modes
 Value Taken    Lamda =  -0.00013025
 Step Taken.  Stepsize is  0.123782

                             Maximum     Tolerance    Cnvgd?
         Gradient           0.001149      0.000100      NO
         Displacement       0.074639      0.000400      NO
         Energy change     -0.000075      0.000000      NO


 New Cartesian Coordinates Obtained by Inverse Iteration

 Displacement from previous Coordinates is:  0.244302
 Adding empirical dispersion correction 
 ----------------------------------------------------------------
 Doing -D3(0) with
 s6  =   1.00000
 s8  =   1.00000
 rs6 =   1.28100
 rs8 =   1.09400
 -D3 energy without 3body term =     -0.0032418039 hartrees
 ----------------------------------------------------------------
             Standard Nuclear Orientation (Angstroms)
    I     Atom           X                Y                Z
 ----------------------------------------------------------------
    1      C       1.5968978913     0.6375980809     0.2997052574
    2      O       0.2795761773     0.2601933229     0.6568377565
    3      C      -0.0977778034    -0.9798777719     0.2666519375
    4      C      -1.3653476847    -1.3636431243     0.2520454477
    5      O      -1.0836157677     1.6718996174    -1.5872957287
    6      H       1.8068067630     1.5722114954     0.8158015217
    7      H       2.3212733176    -0.1187088042     0.6177396932
    8      H       1.6776880362     0.7953781084    -0.7798927311
    9      H      -1.3833042500     0.8266259332    -1.9262571736
   10      H       0.7154176822    -1.6469181281    -0.0148137827
   11      H      -1.6139170696    -2.3769776192    -0.0273427149
   12      H      -2.1637968422    -0.6923687401     0.5434590752
   13      H      -0.8508684497     1.4885346297    -0.6723005581
 ----------------------------------------------------------------
 Nuclear Repulsion Energy =   180.6141015805 hartrees
 There are       21 alpha and       21 beta electrons
 Applying Cartesian multipole field
    Component          Value
    ---------          -----
     (2,0,0)        1.00000E-11
     (0,2,0)        2.00000E-11
     (0,0,2)       -3.00000E-11
 Nucleus-field energy     =     0.0000000028 hartrees
 Requested basis set is def2-TZVP
 There are 87 shells and 203 basis functions
 A cutoff of  1.0D-11 yielded   3542 shell pairs
 There are     19704 function pairs (     25002 Cartesian)
 Smallest overlap matrix eigenvalue = 1.56E-04
 Guess MOs from SCF MO coefficient file
 Reading MOs from coefficient file
 Reading MOs from coefficient file

 -----------------------------------------------------------------------
  General SCF calculation program by
  Eric Jon Sundstrom, Paul Horn, Yuezhi Mao, Dmitri Zuev, Alec White,
  David Stuck, Shaama M.S., Shane Yost, Joonho Lee, David Small,
  Daniel Levine, Susi Lehtola, Hugh Burton, Evgeny Epifanovsky
 -----------------------------------------------------------------------
 Exchange:     0.1957 Hartree-Fock + 1.0000 wB97X-D3 + LR-HF
 Correlation:  1.0000 wB97X-D3
 Using SG-2 standard quadrature grid
 Dispersion:   Grimme D3
 using 16 threads for integral computing
 -------------------------------------------------------
 OpenMP Integral computing Module                
 Release: version 1.0, May 2013, Q-Chem Inc. Pittsburgh 
 -------------------------------------------------------
 using 16 threads for integral computing
 -------------------------------------------------------
 OpenMP Integral computing Module                
 Release: version 1.0, May 2013, Q-Chem Inc. Pittsburgh 
 -------------------------------------------------------
 -------------------------------------------------------
 OpenMP BLAS3 based DFT computing Module                
 Release: version 1.0, May 2013, Q-Chem Inc. Pittsburgh 
 -------------------------------------------------------
 A unrestricted SCF calculation will be
 performed using DIIS
 SCF converges when DIIS error is below 1.0e-08
 ---------------------------------------
  Cycle       Energy         DIIS error
 ---------------------------------------
    1    -269.5725239719      3.66e-04  
    2    -269.5742407196      5.41e-05  
    3    -269.5743565627      2.15e-05  
    4    -269.5743677797      1.63e-05  
    5    -269.5743730217      3.38e-06  
    6    -269.5743735222      1.22e-06  
    7    -269.5743735619      5.28e-07  
    8    -269.5743735696      9.96e-08  
    9    -269.5743735701      3.39e-08  
   10    -269.5743735701      1.22e-08  
   11    -269.5743735701      3.19e-09  Convergence criterion met
 ---------------------------------------
 SCF time:   CPU 320.49s  wall 21.00s 
<S^2> =          0.000000000
 SCF   energy in the final basis set =     -269.5743735701
 Total energy in the final basis set =     -269.5743735701
 No wavefunction analysis requested
 Calculating analytic gradient of the SCF energy
 Gradient of SCF Energy
            1           2           3           4           5           6
    1  -0.0020200   0.0011069   0.0007990  -0.0004252   0.0001605   0.0000519
    2  -0.0003366  -0.0008556   0.0012200  -0.0001965  -0.0007023   0.0001571
    3   0.0003275  -0.0005557   0.0005875  -0.0000935   0.0008047   0.0001775
            7           8           9          10          11          12
    1   0.0003958   0.0001923   0.0000312   0.0003034  -0.0000638  -0.0002546
    2  -0.0001715   0.0000902   0.0003027  -0.0003314  -0.0001151   0.0001081
    3  -0.0000451  -0.0002964  -0.0002237  -0.0000189  -0.0000092   0.0000663
           13
    1  -0.0002775
    2   0.0008310
    3  -0.0007211
 Max gradient component =       2.020E-03
 RMS gradient           =       5.671E-04
 Gradient time:  CPU 67.19 s  wall 4.82 s
 Geometry Optimization Parameters
   NAtoms,    NIC,     NZ,  NCons,   NDum,   NFix, NCnnct, MaxDiis
       13      72       0       0       0       0       0       0

 Cartesian Hessian Update
 Hessian Updated using BFGS Update


** GEOMETRY OPTIMIZATION IN DELOCALIZED INTERNAL COORDINATES **
   Searching for a Minimum

   Optimization Cycle:   5

                       Coordinates (Angstroms)
     ATOM                X               Y               Z
      1  C         1.5968978913    0.6375980809    0.2997052574
      2  O         0.2795761773    0.2601933229    0.6568377565
      3  C        -0.0977778034   -0.9798777719    0.2666519375
      4  C        -1.3653476847   -1.3636431243    0.2520454477
      5  O        -1.0836157677    1.6718996174   -1.5872957287
      6  H         1.8068067630    1.5722114954    0.8158015217
      7  H         2.3212733176   -0.1187088042    0.6177396932
      8  H         1.6776880362    0.7953781084   -0.7798927311
      9  H        -1.3833042500    0.8266259332   -1.9262571736
     10  H         0.7154176822   -1.6469181281   -0.0148137827
     11  H        -1.6139170696   -2.3769776192   -0.0273427149
     12  H        -2.1637968422   -0.6923687401    0.5434590752
     13  H        -0.8508684497    1.4885346297   -0.6723005581
   Point Group: c1    Number of degrees of freedom:    33


   Energy is   -269.574373570

 Hessian Updated using BFGS Update

 31 Hessian modes will be used to form the next step
  Hessian Eigenvalues:
     0.004021    0.005830    0.011255    0.015288    0.025974    0.030191
     0.030871    0.035696    0.043713    0.075120    0.080455    0.105983
     0.150402    0.157238    0.159985    0.160173    0.160983    0.163211
     0.182301    0.231398    0.336632    0.339263    0.342681    0.346019
     0.350696    0.356084    0.393318    0.502160    0.522234    0.534575
     0.625626

 Minimum Search - Taking Simple RFO Step
 Searching for Lamda that Minimizes Along All modes
 Value Taken    Lamda =  -0.00002975
 Step Taken.  Stepsize is  0.030454

                             Maximum     Tolerance    Cnvgd?
         Gradient           0.001352      0.000100      NO
         Displacement       0.014108      0.000400      NO
         Energy change     -0.000064      0.000000      NO


 New Cartesian Coordinates Obtained by Inverse Iteration

 Displacement from previous Coordinates is:  0.059324
 Adding empirical dispersion correction 
 ----------------------------------------------------------------
 Doing -D3(0) with
 s6  =   1.00000
 s8  =   1.00000
 rs6 =   1.28100
 rs8 =   1.09400
 -D3 energy without 3body term =     -0.0032421263 hartrees
 ----------------------------------------------------------------
             Standard Nuclear Orientation (Angstroms)
    I     Atom           X                Y                Z
 ----------------------------------------------------------------
    1      C       1.6006922699     0.6380234914     0.3031760732
    2      O       0.2794449238     0.2630679752     0.6556448287
    3      C      -0.0992337265    -0.9762526622     0.2609936958
    4      C      -1.3660584385    -1.3607994612     0.2511419448
    5      O      -1.0874226976     1.6655157775    -1.5891434638
    6      H       1.8093575554     1.5749708447     0.8150231949
    7      H       2.3211172452    -0.1179939116     0.6291387103
    8      H       1.6859957824     0.7894113063    -0.7766139540
    9      H      -1.3891567653     0.8173041217    -1.9198829319
   10      H       0.7124434518    -1.6402175498    -0.0295956282
   11      H      -1.6153609735    -2.3724382637    -0.0332690940
   12      H      -2.1627192650    -0.6919423566     0.5516101964
   13      H      -0.8500673617     1.4852976882    -0.6738855723
 ----------------------------------------------------------------
 Nuclear Repulsion Energy =   180.6161392098 hartrees
 There are       21 alpha and       21 beta electrons
 Applying Cartesian multipole field
    Component          Value
    ---------          -----
     (2,0,0)        1.00000E-11
     (0,2,0)        2.00000E-11
     (0,0,2)       -3.00000E-11
 Nucleus-field energy     =     0.0000000028 hartrees
 Requested basis set is def2-TZVP
 There are 87 shells and 203 basis functions
 A cutoff of  1.0D-11 yielded   3543 shell pairs
 There are     19699 function pairs (     24996 Cartesian)
 Smallest overlap matrix eigenvalue = 1.55E-04
 Guess MOs from SCF MO coefficient file
 Reading MOs from coefficient file
 Reading MOs from coefficient file

 -----------------------------------------------------------------------
  General SCF calculation program by
  Eric Jon Sundstrom, Paul Horn, Yuezhi Mao, Dmitri Zuev, Alec White,
  David Stuck, Shaama M.S., Shane Yost, Joonho Lee, David Small,
  Daniel Levine, Susi Lehtola, Hugh Burton, Evgeny Epifanovsky
 -----------------------------------------------------------------------
 Exchange:     0.1957 Hartree-Fock + 1.0000 wB97X-D3 + LR-HF
 Correlation:  1.0000 wB97X-D3
 Using SG-2 standard quadrature grid
 Dispersion:   Grimme D3
 using 16 threads for integral computing
 -------------------------------------------------------
 OpenMP Integral computing Module                
 Release: version 1.0, May 2013, Q-Chem Inc. Pittsburgh 
 -------------------------------------------------------
 using 16 threads for integral computing
 -------------------------------------------------------
 OpenMP Integral computing Module                
 Release: version 1.0, May 2013, Q-Chem Inc. Pittsburgh 
 -------------------------------------------------------
 -------------------------------------------------------
 OpenMP BLAS3 based DFT computing Module                
 Release: version 1.0, May 2013, Q-Chem Inc. Pittsburgh 
 -------------------------------------------------------
 A unrestricted SCF calculation will be
 performed using DIIS
 SCF converges when DIIS error is below 1.0e-08
 ---------------------------------------
  Cycle       Energy         DIIS error
 ---------------------------------------
    1    -269.5732653894      7.03e-05  
    2    -269.5743897393      1.10e-05  
    3    -269.5743945342      7.61e-06  
    4    -269.5743955292      3.25e-06  
    5    -269.5743958213      6.33e-07  
    6    -269.5743958447      2.82e-07  
    7    -269.5743958471      1.05e-07  
    8    -269.5743958475      3.31e-08  
    9    -269.5743958475      8.88e-09  Convergence criterion met
 ---------------------------------------
 SCF time:   CPU 262.30s  wall 17.00s 
<S^2> =          0.000000000
 SCF   energy in the final basis set =     -269.5743958475
 Total energy in the final basis set =     -269.5743958475
 No wavefunction analysis requested
 Calculating analytic gradient of the SCF energy
 Gradient of SCF Energy
            1           2           3           4           5           6
    1  -0.0007890   0.0004197   0.0001659  -0.0000772   0.0001124   0.0001722
    2   0.0001704  -0.0006242   0.0002438  -0.0000463   0.0000096   0.0000772
    3   0.0001786  -0.0002512   0.0003737  -0.0001253   0.0000643   0.0000563
            7           8           9          10          11          12
    1   0.0001586   0.0000902   0.0000006   0.0000033  -0.0000188  -0.0000265
    2  -0.0000693   0.0000214  -0.0000316  -0.0001001  -0.0000594   0.0000051
    3  -0.0000695  -0.0001145  -0.0000408   0.0000249   0.0000122   0.0000242
           13
    1  -0.0002113
    2   0.0004035
    3  -0.0001327
 Max gradient component =       7.890E-04
 RMS gradient           =       2.218E-04
 Gradient time:  CPU 67.47 s  wall 4.97 s
 Geometry Optimization Parameters
   NAtoms,    NIC,     NZ,  NCons,   NDum,   NFix, NCnnct, MaxDiis
       13      72       0       0       0       0       0       0

 Cartesian Hessian Update
 Hessian Updated using BFGS Update


** GEOMETRY OPTIMIZATION IN DELOCALIZED INTERNAL COORDINATES **
   Searching for a Minimum

   Optimization Cycle:   6

                       Coordinates (Angstroms)
     ATOM                X               Y               Z
      1  C         1.6006922699    0.6380234914    0.3031760732
      2  O         0.2794449238    0.2630679752    0.6556448287
      3  C        -0.0992337265   -0.9762526622    0.2609936958
      4  C        -1.3660584385   -1.3607994612    0.2511419448
      5  O        -1.0874226976    1.6655157775   -1.5891434638
      6  H         1.8093575554    1.5749708447    0.8150231949
      7  H         2.3211172452   -0.1179939116    0.6291387103
      8  H         1.6859957824    0.7894113063   -0.7766139540
      9  H        -1.3891567653    0.8173041217   -1.9198829319
     10  H         0.7124434518   -1.6402175498   -0.0295956282
     11  H        -1.6153609735   -2.3724382637   -0.0332690940
     12  H        -2.1627192650   -0.6919423566    0.5516101964
     13  H        -0.8500673617    1.4852976882   -0.6738855723
   Point Group: c1    Number of degrees of freedom:    33


   Energy is   -269.574395847

 Hessian Updated using BFGS Update

 32 Hessian modes will be used to form the next step
  Hessian Eigenvalues:
     0.003200    0.005104    0.011022    0.015264    0.024785    0.026096
     0.030229    0.031173    0.043662    0.075914    0.080424    0.084896
     0.150437    0.156012    0.159993    0.160145    0.160420    0.163154
     0.171942    0.179181    0.230471    0.336542    0.338697    0.343044
     0.346089    0.351117    0.356713    0.423039    0.521992    0.533371
     0.538188    0.631813

 Minimum Search - Taking Simple RFO Step
 Searching for Lamda that Minimizes Along All modes
 Value Taken    Lamda =  -0.00003748
 Step Taken.  Stepsize is  0.078658

                             Maximum     Tolerance    Cnvgd?
         Gradient           0.000531      0.000100      NO
         Displacement       0.034880      0.000400      NO
         Energy change     -0.000022      0.000000      NO


 New Cartesian Coordinates Obtained by Inverse Iteration

 Displacement from previous Coordinates is:  0.150113
 Adding empirical dispersion correction 
 ----------------------------------------------------------------
 Doing -D3(0) with
 s6  =   1.00000
 s8  =   1.00000
 rs6 =   1.28100
 rs8 =   1.09400
 -D3 energy without 3body term =     -0.0032388366 hartrees
 ----------------------------------------------------------------
             Standard Nuclear Orientation (Angstroms)
    I     Atom           X                Y                Z
 ----------------------------------------------------------------
    1      C       1.6090991766     0.6365863118     0.3123101433
    2      O       0.2801991823     0.2697809339     0.6511988494
    3      C      -0.1009390909    -0.9665161806     0.2464874891
    4      C      -1.3665868283    -1.3538670192     0.2509774139
    5      O      -1.0967757054     1.6500509383    -1.5948633470
    6      H       1.8111293247     1.5795115356     0.8148999264
    7      H       2.3210536132    -0.1171605647     0.6594701502
    8      H       1.7088722743     0.7735142630    -0.7677415936
    9      H      -1.4108612471     0.7994393102    -1.9082531522
   10      H       0.7077337340    -1.6228658859    -0.0669699011
   11      H      -1.6181563221    -2.3611210996    -0.0461258676
   12      H      -2.1593897549    -0.6912779829     0.5738893998
   13      H      -0.8463463560     1.4778724402    -0.6809415105
 ----------------------------------------------------------------
 Nuclear Repulsion Energy =   180.6739820732 hartrees
 There are       21 alpha and       21 beta electrons
 Applying Cartesian multipole field
    Component          Value
    ---------          -----
     (2,0,0)        1.00000E-11
     (0,2,0)        2.00000E-11
     (0,0,2)       -3.00000E-11
 Nucleus-field energy     =     0.0000000028 hartrees
 Requested basis set is def2-TZVP
 There are 87 shells and 203 basis functions
 A cutoff of  1.0D-11 yielded   3544 shell pairs
 There are     19712 function pairs (     25011 Cartesian)
 Smallest overlap matrix eigenvalue = 1.54E-04
 Guess MOs from SCF MO coefficient file
 Reading MOs from coefficient file
 Reading MOs from coefficient file

 -----------------------------------------------------------------------
  General SCF calculation program by
  Eric Jon Sundstrom, Paul Horn, Yuezhi Mao, Dmitri Zuev, Alec White,
  David Stuck, Shaama M.S., Shane Yost, Joonho Lee, David Small,
  Daniel Levine, Susi Lehtola, Hugh Burton, Evgeny Epifanovsky
 -----------------------------------------------------------------------
 Exchange:     0.1957 Hartree-Fock + 1.0000 wB97X-D3 + LR-HF
 Correlation:  1.0000 wB97X-D3
 Using SG-2 standard quadrature grid
 Dispersion:   Grimme D3
 using 16 threads for integral computing
 -------------------------------------------------------
 OpenMP Integral computing Module                
 Release: version 1.0, May 2013, Q-Chem Inc. Pittsburgh 
 -------------------------------------------------------
 using 16 threads for integral computing
 -------------------------------------------------------
 OpenMP Integral computing Module                
 Release: version 1.0, May 2013, Q-Chem Inc. Pittsburgh 
 -------------------------------------------------------
 -------------------------------------------------------
 OpenMP BLAS3 based DFT computing Module                
 Release: version 1.0, May 2013, Q-Chem Inc. Pittsburgh 
 -------------------------------------------------------
 A unrestricted SCF calculation will be
 performed using DIIS
 SCF converges when DIIS error is below 1.0e-08
 ---------------------------------------
  Cycle       Energy         DIIS error
 ---------------------------------------
    1    -269.5736579447      1.79e-04  
    2    -269.5743801714      2.54e-05  
    3    -269.5744135433      1.04e-05  
    4    -269.5744169135      7.87e-06  
    5    -269.5744182096      1.53e-06  
    6    -269.5744183183      6.56e-07  
    7    -269.5744183297      2.63e-07  
    8    -269.5744183318      6.01e-08  
    9    -269.5744183320      1.59e-08  
   10    -269.5744183320      6.06e-09  Convergence criterion met
 ---------------------------------------
 SCF time:   CPU 291.22s  wall 20.00s 
<S^2> =          0.000000000
 SCF   energy in the final basis set =     -269.5744183320
 Total energy in the final basis set =     -269.5744183320
 No wavefunction analysis requested
 Calculating analytic gradient of the SCF energy
 Gradient of SCF Energy
            1           2           3           4           5           6
    1   0.0006420  -0.0003538  -0.0000952   0.0000990   0.0000903  -0.0000156
    2   0.0002432  -0.0000608  -0.0005417   0.0000914   0.0004582  -0.0001120
    3  -0.0001510   0.0001712  -0.0000068  -0.0000457  -0.0004374  -0.0000151
            7           8           9          10          11          12
    1  -0.0001188  -0.0000689  -0.0000448  -0.0001393   0.0000437   0.0001155
    2   0.0000465  -0.0000235  -0.0002669   0.0001340   0.0000261  -0.0000505
    3  -0.0000587   0.0000963   0.0001094   0.0000490   0.0000181  -0.0000301
           13
    1  -0.0001540
    2   0.0000561
    3   0.0003008
 Max gradient component =       6.420E-04
 RMS gradient           =       2.084E-04
 Gradient time:  CPU 67.38 s  wall 4.78 s
 Geometry Optimization Parameters
   NAtoms,    NIC,     NZ,  NCons,   NDum,   NFix, NCnnct, MaxDiis
       13      72       0       0       0       0       0       0

 Cartesian Hessian Update
 Hessian Updated using BFGS Update


** GEOMETRY OPTIMIZATION IN DELOCALIZED INTERNAL COORDINATES **
   Searching for a Minimum

   Optimization Cycle:   7

                       Coordinates (Angstroms)
     ATOM                X               Y               Z
      1  C         1.6090991766    0.6365863118    0.3123101433
      2  O         0.2801991823    0.2697809339    0.6511988494
      3  C        -0.1009390909   -0.9665161806    0.2464874891
      4  C        -1.3665868283   -1.3538670192    0.2509774139
      5  O        -1.0967757054    1.6500509383   -1.5948633470
      6  H         1.8111293247    1.5795115356    0.8148999264
      7  H         2.3210536132   -0.1171605647    0.6594701502
      8  H         1.7088722743    0.7735142630   -0.7677415936
      9  H        -1.4108612471    0.7994393102   -1.9082531522
     10  H         0.7077337340   -1.6228658859   -0.0669699011
     11  H        -1.6181563221   -2.3611210996   -0.0461258676
     12  H        -2.1593897549   -0.6912779829    0.5738893998
     13  H        -0.8463463560    1.4778724402   -0.6809415105
   Point Group: c1    Number of degrees of freedom:    33


   Energy is   -269.574418332

 Hessian Updated using BFGS Update

 33 Hessian modes will be used to form the next step
  Hessian Eigenvalues:
     0.002442    0.004848    0.010916    0.015223    0.022015    0.026072
     0.030222    0.031129    0.043688    0.075845    0.080291    0.081743
     0.152286    0.158648    0.159998    0.160130    0.160251    0.160694
     0.163784    0.174943    0.183750    0.232155    0.336631    0.338990
     0.343410    0.346768    0.351099    0.358247    0.434677    0.522006
     0.533059    0.555795    0.643654

 Minimum Search - Taking Simple RFO Step
 Searching for Lamda that Minimizes Along All modes
 Value Taken    Lamda =  -0.00001093
 Step Taken.  Stepsize is  0.050258

                             Maximum     Tolerance    Cnvgd?
         Gradient           0.000444      0.000100      NO
         Displacement       0.023363      0.000400      NO
         Energy change     -0.000022      0.000000      NO


 New Cartesian Coordinates Obtained by Inverse Iteration

 Displacement from previous Coordinates is:  0.095091
 Adding empirical dispersion correction 
 ----------------------------------------------------------------
 Doing -D3(0) with
 s6  =   1.00000
 s8  =   1.00000
 rs6 =   1.28100
 rs8 =   1.09400
 -D3 energy without 3body term =     -0.0032355231 hartrees
 ----------------------------------------------------------------
             Standard Nuclear Orientation (Angstroms)
    I     Atom           X                Y                Z
 ----------------------------------------------------------------
    1      C       1.6136146610     0.6357292589     0.3183971753
    2      O       0.2812400741     0.2729851350     0.6476751423
    3      C      -0.1019602245    -0.9607906122     0.2371094198
    4      C      -1.3669843747    -1.3500844277     0.2521648982
    5      O      -1.1025106489     1.6410932415    -1.5978286219
    6      H       1.8113518661     1.5829160588     0.8147864200
    7      H       2.3214619833    -0.1155240858     0.6790815731
    8      H       1.7239715892     0.7636961870    -0.7617717832
    9      H      -1.4236456130     0.7909112465    -1.9047926883
   10      H       0.7041044756    -1.6128140950    -0.0919435524
   11      H      -1.6207327360    -2.3543397807    -0.0531498667
   12      H      -2.1570194453    -0.6917334680     0.5903931956
   13      H      -0.8438596065     1.4719023417    -0.6857833119
 ----------------------------------------------------------------
 Nuclear Repulsion Energy =   180.7169181184 hartrees
 There are       21 alpha and       21 beta electrons
 Applying Cartesian multipole field
    Component          Value
    ---------          -----
     (2,0,0)        1.00000E-11
     (0,2,0)        2.00000E-11
     (0,0,2)       -3.00000E-11
 Nucleus-field energy     =     0.0000000027 hartrees
 Requested basis set is def2-TZVP
 There are 87 shells and 203 basis functions
 A cutoff of  1.0D-11 yielded   3543 shell pairs
 There are     19705 function pairs (     25001 Cartesian)
 Smallest overlap matrix eigenvalue = 1.54E-04
 Guess MOs from SCF MO coefficient file
 Reading MOs from coefficient file
 Reading MOs from coefficient file

 -----------------------------------------------------------------------
  General SCF calculation program by
  Eric Jon Sundstrom, Paul Horn, Yuezhi Mao, Dmitri Zuev, Alec White,
  David Stuck, Shaama M.S., Shane Yost, Joonho Lee, David Small,
  Daniel Levine, Susi Lehtola, Hugh Burton, Evgeny Epifanovsky
 -----------------------------------------------------------------------
 Exchange:     0.1957 Hartree-Fock + 1.0000 wB97X-D3 + LR-HF
 Correlation:  1.0000 wB97X-D3
 Using SG-2 standard quadrature grid
 Dispersion:   Grimme D3
 using 16 threads for integral computing
 -------------------------------------------------------
 OpenMP Integral computing Module                
 Release: version 1.0, May 2013, Q-Chem Inc. Pittsburgh 
 -------------------------------------------------------
 using 16 threads for integral computing
 -------------------------------------------------------
 OpenMP Integral computing Module                
 Release: version 1.0, May 2013, Q-Chem Inc. Pittsburgh 
 -------------------------------------------------------
 -------------------------------------------------------
 OpenMP BLAS3 based DFT computing Module                
 Release: version 1.0, May 2013, Q-Chem Inc. Pittsburgh 
 -------------------------------------------------------
 A unrestricted SCF calculation will be
 performed using DIIS
 SCF converges when DIIS error is below 1.0e-08
 ---------------------------------------
  Cycle       Energy         DIIS error
 ---------------------------------------
    1    -269.5749129998      1.19e-04  
    2    -269.5744088353      1.61e-05  
    3    -269.5744230706      5.76e-06  
    4    -269.5744246153      3.77e-06  
    5    -269.5744249736      1.11e-06  
    6    -269.5744250171      3.06e-07  
    7    -269.5744250208      1.41e-07  
    8    -269.5744250213      5.77e-08  
    9    -269.5744250214      1.16e-08  
   10    -269.5744250214      4.28e-09  Convergence criterion met
 ---------------------------------------
 SCF time:   CPU 291.66s  wall 20.00s 
<S^2> =          0.000000000
 SCF   energy in the final basis set =     -269.5744250214
 Total energy in the final basis set =     -269.5744250214
 No wavefunction analysis requested
 Calculating analytic gradient of the SCF energy
 Gradient of SCF Energy
            1           2           3           4           5           6
    1   0.0006538  -0.0003464  -0.0001127   0.0000911   0.0000904  -0.0000149
    2   0.0001737   0.0000035  -0.0004380   0.0000733   0.0002088  -0.0000580
    3  -0.0001248   0.0001457  -0.0000714  -0.0000088  -0.0002504  -0.0000076
            7           8           9          10          11          12
    1  -0.0001233  -0.0000774  -0.0000345  -0.0000802   0.0000328   0.0000722
    2   0.0000252  -0.0000148  -0.0001662   0.0000909   0.0000185  -0.0000209
    3  -0.0000226   0.0000763   0.0000766   0.0000092  -0.0000037  -0.0000214
           13
    1  -0.0001509
    2   0.0001041
    3   0.0002028
 Max gradient component =       6.538E-04
 RMS gradient           =       1.692E-04
 Gradient time:  CPU 67.58 s  wall 4.78 s
 Geometry Optimization Parameters
   NAtoms,    NIC,     NZ,  NCons,   NDum,   NFix, NCnnct, MaxDiis
       13      72       0       0       0       0       0       0

 Cartesian Hessian Update
 Hessian Updated using BFGS Update


** GEOMETRY OPTIMIZATION IN DELOCALIZED INTERNAL COORDINATES **
   Searching for a Minimum

   Optimization Cycle:   8

                       Coordinates (Angstroms)
     ATOM                X               Y               Z
      1  C         1.6136146610    0.6357292589    0.3183971753
      2  O         0.2812400741    0.2729851350    0.6476751423
      3  C        -0.1019602245   -0.9607906122    0.2371094198
      4  C        -1.3669843747   -1.3500844277    0.2521648982
      5  O        -1.1025106489    1.6410932415   -1.5978286219
      6  H         1.8113518661    1.5829160588    0.8147864200
      7  H         2.3214619833   -0.1155240858    0.6790815731
      8  H         1.7239715892    0.7636961870   -0.7617717832
      9  H        -1.4236456130    0.7909112465   -1.9047926883
     10  H         0.7041044756   -1.6128140950   -0.0919435524
     11  H        -1.6207327360   -2.3543397807   -0.0531498667
     12  H        -2.1570194453   -0.6917334680    0.5903931956
     13  H        -0.8438596065    1.4719023417   -0.6857833119
   Point Group: c1    Number of degrees of freedom:    33


   Energy is   -269.574425021

 Hessian Updated using BFGS Update

 33 Hessian modes will be used to form the next step
  Hessian Eigenvalues:
     0.002087    0.004622    0.010841    0.015164    0.020578    0.026111
     0.030209    0.031158    0.043707    0.075688    0.080099    0.081207
     0.149948    0.158195    0.159947    0.160099    0.160178    0.161145
     0.163452    0.169160    0.181745    0.231534    0.336600    0.338989
     0.343384    0.346237    0.351156    0.357516    0.418605    0.522741
     0.528728    0.534642    0.631346

 Minimum Search - Taking Simple RFO Step
 Searching for Lamda that Minimizes Along All modes
 Value Taken    Lamda =  -0.00000465
 Step Taken.  Stepsize is  0.030117

                             Maximum     Tolerance    Cnvgd?
         Gradient           0.000368      0.000100      NO
         Displacement       0.015493      0.000400      NO
         Energy change     -0.000007      0.000000      NO


 New Cartesian Coordinates Obtained by Inverse Iteration

 Displacement from previous Coordinates is:  0.055219
 Adding empirical dispersion correction 
 ----------------------------------------------------------------
 Doing -D3(0) with
 s6  =   1.00000
 s8  =   1.00000
 rs6 =   1.28100
 rs8 =   1.09400
 -D3 energy without 3body term =     -0.0032322837 hartrees
 ----------------------------------------------------------------
             Standard Nuclear Orientation (Angstroms)
    I     Atom           X                Y                Z
 ----------------------------------------------------------------
    1      C       1.6155236644     0.6349764908     0.3218021460
    2      O       0.2817977918     0.2744831812     0.6452622711
    3      C      -0.1026744784    -0.9576640792     0.2317445085
    4      C      -1.3671828178    -1.3487513733     0.2539556265
    5      O      -1.1053913363     1.6377684085    -1.5990030476
    6      H       1.8103543748     1.5850666467     0.8139403341
    7      H       2.3217735804    -0.1139028820     0.6908595291
    8      H       1.7328474102     0.7573195030    -0.7584195608
    9      H      -1.4297763170     0.7890639804    -1.9060401588
   10      H       0.7016940354    -1.6070920459    -0.1068780067
   11      H      -1.6220962501    -2.3513361558    -0.0559271684
   12      H      -2.1556672727    -0.6933902157     0.6016963399
   13      H      -0.8421703843     1.4674055415    -0.6886548128
 ----------------------------------------------------------------
 Nuclear Repulsion Energy =   180.7408893697 hartrees
 There are       21 alpha and       21 beta electrons
 Applying Cartesian multipole field
    Component          Value
    ---------          -----
     (2,0,0)        1.00000E-11
     (0,2,0)        2.00000E-11
     (0,0,2)       -3.00000E-11
 Nucleus-field energy     =     0.0000000027 hartrees
 Requested basis set is def2-TZVP
 There are 87 shells and 203 basis functions
 A cutoff of  1.0D-11 yielded   3542 shell pairs
 There are     19704 function pairs (     25000 Cartesian)
 Smallest overlap matrix eigenvalue = 1.54E-04
 Guess MOs from SCF MO coefficient file
 Reading MOs from coefficient file
 Reading MOs from coefficient file

 -----------------------------------------------------------------------
  General SCF calculation program by
  Eric Jon Sundstrom, Paul Horn, Yuezhi Mao, Dmitri Zuev, Alec White,
  David Stuck, Shaama M.S., Shane Yost, Joonho Lee, David Small,
  Daniel Levine, Susi Lehtola, Hugh Burton, Evgeny Epifanovsky
 -----------------------------------------------------------------------
 Exchange:     0.1957 Hartree-Fock + 1.0000 wB97X-D3 + LR-HF
 Correlation:  1.0000 wB97X-D3
 Using SG-2 standard quadrature grid
 Dispersion:   Grimme D3
 using 16 threads for integral computing
 -------------------------------------------------------
 OpenMP Integral computing Module                
 Release: version 1.0, May 2013, Q-Chem Inc. Pittsburgh 
 -------------------------------------------------------
 using 16 threads for integral computing
 -------------------------------------------------------
 OpenMP Integral computing Module                
 Release: version 1.0, May 2013, Q-Chem Inc. Pittsburgh 
 -------------------------------------------------------
 -------------------------------------------------------
 OpenMP BLAS3 based DFT computing Module                
 Release: version 1.0, May 2013, Q-Chem Inc. Pittsburgh 
 -------------------------------------------------------
 A unrestricted SCF calculation will be
 performed using DIIS
 SCF converges when DIIS error is below 1.0e-08
 ---------------------------------------
  Cycle       Energy         DIIS error
 ---------------------------------------
    1    -269.5752122483      7.57e-05  
    2    -269.5744214529      1.02e-05  
    3    -269.5744267810      4.70e-06  
    4    -269.5744273987      3.25e-06  
    5    -269.5744276494      7.82e-07  
    6    -269.5744276728      2.70e-07  
    7    -269.5744276750      1.09e-07  
    8    -269.5744276754      3.45e-08  
    9    -269.5744276754      7.26e-09  Convergence criterion met
 ---------------------------------------
 SCF time:   CPU 262.59s  wall 18.00s 
<S^2> =          0.000000000
 SCF   energy in the final basis set =     -269.5744276754
 Total energy in the final basis set =     -269.5744276754
 No wavefunction analysis requested
 Calculating analytic gradient of the SCF energy
 Gradient of SCF Energy
            1           2           3           4           5           6
    1   0.0002218  -0.0000729  -0.0000150   0.0000090   0.0000628  -0.0000183
    2   0.0000025  -0.0000281  -0.0000781   0.0000009  -0.0000937  -0.0000192
    3  -0.0000239   0.0000278  -0.0000493   0.0000049  -0.0000524   0.0000052
            7           8           9          10          11          12
    1  -0.0000328  -0.0000275  -0.0000003  -0.0000126   0.0000066   0.0000204
    2   0.0000054   0.0000058  -0.0000113   0.0000249   0.0000024  -0.0000046
    3  -0.0000027   0.0000232   0.0000212  -0.0000190  -0.0000132  -0.0000060
           13
    1  -0.0001410
    2   0.0001930
    3   0.0000841
 Max gradient component =       2.218E-04
 RMS gradient           =       6.217E-05
 Gradient time:  CPU 68.37 s  wall 4.85 s
 Geometry Optimization Parameters
   NAtoms,    NIC,     NZ,  NCons,   NDum,   NFix, NCnnct, MaxDiis
       13      72       0       0       0       0       0       0

 Cartesian Hessian Update
 Hessian Updated using BFGS Update


** GEOMETRY OPTIMIZATION IN DELOCALIZED INTERNAL COORDINATES **
   Searching for a Minimum

   Optimization Cycle:   9

                       Coordinates (Angstroms)
     ATOM                X               Y               Z
      1  C         1.6155236644    0.6349764908    0.3218021460
      2  O         0.2817977918    0.2744831812    0.6452622711
      3  C        -0.1026744784   -0.9576640792    0.2317445085
      4  C        -1.3671828178   -1.3487513733    0.2539556265
      5  O        -1.1053913363    1.6377684085   -1.5990030476
      6  H         1.8103543748    1.5850666467    0.8139403341
      7  H         2.3217735804   -0.1139028820    0.6908595291
      8  H         1.7328474102    0.7573195030   -0.7584195608
      9  H        -1.4297763170    0.7890639804   -1.9060401588
     10  H         0.7016940354   -1.6070920459   -0.1068780067
     11  H        -1.6220962501   -2.3513361558   -0.0559271684
     12  H        -2.1556672727   -0.6933902157    0.6016963399
     13  H        -0.8421703843    1.4674055415   -0.6886548128
   Point Group: c1    Number of degrees of freedom:    33


   Energy is   -269.574427675

 Hessian Updated using BFGS Update

 33 Hessian modes will be used to form the next step
  Hessian Eigenvalues:
     0.002151    0.004348    0.010723    0.015255    0.018865    0.026134
     0.030204    0.031158    0.043508    0.075827    0.079659    0.080741
     0.115317    0.159607    0.159924    0.160147    0.160531    0.161002
     0.164215    0.176208    0.181698    0.230570    0.336580    0.338872
     0.343341    0.346260    0.351154    0.357680    0.412879    0.522046
     0.533287    0.534587    0.632117

 Minimum Search - Taking Simple RFO Step
 Searching for Lamda that Minimizes Along All modes
 Value Taken    Lamda =  -0.00000174
 Step Taken.  Stepsize is  0.012373

                             Maximum     Tolerance    Cnvgd?
         Gradient           0.000153      0.000100      NO
         Displacement       0.006165      0.000400      NO
         Energy change     -0.000003      0.000000      NO


 New Cartesian Coordinates Obtained by Inverse Iteration

 Displacement from previous Coordinates is:  0.019243
 Adding empirical dispersion correction 
 ----------------------------------------------------------------
 Doing -D3(0) with
 s6  =   1.00000
 s8  =   1.00000
 rs6 =   1.28100
 rs8 =   1.09400
 -D3 energy without 3body term =     -0.0032303077 hartrees
 ----------------------------------------------------------------
             Standard Nuclear Orientation (Angstroms)
    I     Atom           X                Y                Z
 ----------------------------------------------------------------
    1      C       1.6156988832     0.6347665178     0.3226505705
    2      O       0.2818554084     0.2747799932     0.6443575319
    3      C      -0.1029176693    -0.9569734354     0.2303449902
    4      C      -1.3672071415    -1.3488034708     0.2549050963
    5      O      -1.1057882497     1.6379519568    -1.5984771855
    6      H       1.8093692217     1.5862871407     0.8125996281
    7      H       2.3217994279    -0.1127400683     0.6950226105
    8      H       1.7355127525     0.7544760879    -0.7576756240
    9      H      -1.4317025622     0.7908889886    -1.9081418400
   10      H       0.7009411433    -1.6056601822    -0.1111500306
   11      H      -1.6223269771    -2.3509437741    -0.0562841126
   12      H      -2.1553796295    -0.6945119773     0.6054842718
   13      H      -0.8408226074     1.4644292233    -0.6892979067
 ----------------------------------------------------------------
 Nuclear Repulsion Energy =   180.7511990313 hartrees
 There are       21 alpha and       21 beta electrons
 Applying Cartesian multipole field
    Component          Value
    ---------          -----
     (2,0,0)        1.00000E-11
     (0,2,0)        2.00000E-11
     (0,0,2)       -3.00000E-11
 Nucleus-field energy     =     0.0000000027 hartrees
 Requested basis set is def2-TZVP
 There are 87 shells and 203 basis functions
 A cutoff of  1.0D-11 yielded   3542 shell pairs
 There are     19704 function pairs (     25000 Cartesian)
 Smallest overlap matrix eigenvalue = 1.53E-04
 Guess MOs from SCF MO coefficient file
 Reading MOs from coefficient file
 Reading MOs from coefficient file

 -----------------------------------------------------------------------
  General SCF calculation program by
  Eric Jon Sundstrom, Paul Horn, Yuezhi Mao, Dmitri Zuev, Alec White,
  David Stuck, Shaama M.S., Shane Yost, Joonho Lee, David Small,
  Daniel Levine, Susi Lehtola, Hugh Burton, Evgeny Epifanovsky
 -----------------------------------------------------------------------
 Exchange:     0.1957 Hartree-Fock + 1.0000 wB97X-D3 + LR-HF
 Correlation:  1.0000 wB97X-D3
 Using SG-2 standard quadrature grid
 Dispersion:   Grimme D3
 using 16 threads for integral computing
 -------------------------------------------------------
 OpenMP Integral computing Module                
 Release: version 1.0, May 2013, Q-Chem Inc. Pittsburgh 
 -------------------------------------------------------
 using 16 threads for integral computing
 -------------------------------------------------------
 OpenMP Integral computing Module                
 Release: version 1.0, May 2013, Q-Chem Inc. Pittsburgh 
 -------------------------------------------------------
 -------------------------------------------------------
 OpenMP BLAS3 based DFT computing Module                
 Release: version 1.0, May 2013, Q-Chem Inc. Pittsburgh 
 -------------------------------------------------------
 A unrestricted SCF calculation will be
 performed using DIIS
 SCF converges when DIIS error is below 1.0e-08
[...]
 H         -0.055  0.175 -0.190    0.042 -0.068 -0.440    0.022  0.010 -0.324
 H         -0.272  0.088 -0.160   -0.281  0.413 -0.046   -0.238  0.132 -0.154
 H         -0.010  0.373 -0.210    0.066 -0.194  0.173    0.256 -0.075 -0.033
 H          0.018  0.016 -0.084   -0.082  0.138 -0.398    0.067 -0.166  0.539
 H          0.101 -0.237  0.206   -0.074  0.116 -0.193    0.009 -0.008  0.019
 H          0.000 -0.300  0.290    0.016 -0.028  0.287   -0.065  0.162 -0.522
 H         -0.006 -0.080  0.004   -0.057  0.072  0.107   -0.027 -0.018  0.088
 TransDip  -0.094  0.007 -0.060   -0.058  0.071 -0.004    0.024 -0.014 -0.026

 Mode:                 4                      5                      6
 Frequency:       144.84                 189.49                 212.18
 Force Cnst:      0.0215                 0.0498                 0.0293
 Red. Mass:       1.7368                 2.3563                 1.1043
 IR Active:          YES                    YES                    YES
 IR Intens:        0.369                  5.324                 65.035
 Raman Active:       YES                    YES                    YES
               X      Y      Z        X      Y      Z        X      Y      Z
 C         -0.027  0.029 -0.038   -0.017 -0.020 -0.046    0.002 -0.013  0.005
 O         -0.030  0.034 -0.040    0.063 -0.091  0.218   -0.015  0.014 -0.047
 C         -0.025  0.036 -0.059    0.021 -0.012  0.006   -0.012  0.005 -0.019
 C         -0.021  0.027 -0.036    0.012  0.012 -0.030   -0.002 -0.025  0.043
 O          0.085 -0.105  0.137   -0.069  0.087 -0.121   -0.027  0.021  0.017
 H         -0.199  0.276 -0.477   -0.134  0.219 -0.490    0.018 -0.035  0.045
 H         -0.005  0.295  0.413    0.131  0.265  0.223   -0.029 -0.046 -0.002
 H          0.106 -0.465 -0.064   -0.112 -0.466 -0.097    0.038  0.024  0.012
 H          0.059 -0.119  0.194    0.179 -0.047 -0.068    0.873 -0.323 -0.100
 H         -0.028  0.058 -0.113   -0.006  0.023 -0.143   -0.012  0.015 -0.043
 H         -0.025  0.038 -0.072   -0.021  0.069 -0.201    0.012 -0.034  0.062
 H         -0.015  0.009  0.017    0.038 -0.027  0.117   -0.007 -0.039  0.060
 H          0.106 -0.065  0.141   -0.181  0.267 -0.035   -0.085  0.275  0.107
 TransDip   0.003 -0.004  0.019   -0.017  0.050 -0.052    0.256 -0.026  0.018

 Mode:                 7                      8                      9
 Frequency:       258.02                 328.35                 474.21
 Force Cnst:      0.0429                 0.1460                 0.1399
 Red. Mass:       1.0930                 2.2990                 1.0560
 IR Active:          YES                    YES                    YES
 IR Intens:       85.750                  8.310                131.700
 Raman Active:       YES                    YES                    YES
               X      Y      Z        X      Y      Z        X      Y      Z
 C         -0.009 -0.022 -0.009    0.018 -0.157 -0.055   -0.011  0.010 -0.010
 O         -0.021  0.019 -0.013   -0.051  0.155  0.084   -0.004  0.003  0.032
 C         -0.001  0.004  0.023   -0.029  0.161  0.029   -0.013 -0.002 -0.003
 C          0.014 -0.047 -0.012    0.056 -0.099 -0.048   -0.007 -0.014  0.003
 O          0.017  0.019 -0.037    0.003 -0.013  0.017   -0.037  0.015  0.007
 H          0.031 -0.034  0.003    0.337 -0.188 -0.122   -0.000  0.008 -0.009
 H         -0.033 -0.049 -0.018   -0.146 -0.337 -0.101    0.010  0.011 -0.049
 H         -0.007 -0.020 -0.009   -0.081 -0.258 -0.075   -0.037  0.015 -0.016
 H         -0.207 -0.210  0.681    0.002  0.085 -0.194    0.150 -0.068  0.007
 H          0.023  0.007  0.079    0.031  0.269 -0.042   -0.009  0.021 -0.040
 H          0.079 -0.072  0.021    0.358 -0.137 -0.185    0.009 -0.005 -0.045
 H         -0.033 -0.077 -0.067   -0.155 -0.369 -0.016   -0.011 -0.029  0.020
 H          0.163  0.611  0.080   -0.107 -0.185  0.005    0.902 -0.158 -0.347
 TransDip  -0.012  0.112  0.274   -0.026 -0.050 -0.073    0.326 -0.163 -0.049

 Mode:                10                     11                     12
 Frequency:       535.57                 726.02                 889.47
 Force Cnst:      0.4507                 0.4520                 0.6468
 Red. Mass:       2.6671                 1.4554                 1.3875
 IR Active:          YES                    YES                    YES
 IR Intens:        2.947                  4.493                 69.537
 Raman Active:       YES                    YES                    YES
               X      Y      Z        X      Y      Z        X      Y      Z
 C         -0.168 -0.124  0.003   -0.010 -0.010  0.012   -0.005 -0.003 -0.000
 O         -0.139  0.015  0.007    0.014 -0.022  0.066   -0.000 -0.006 -0.015
 C          0.177 -0.044 -0.048   -0.020  0.065 -0.169    0.008 -0.015  0.071
 C          0.165  0.132  0.023    0.006 -0.003  0.014   -0.018  0.060 -0.158
 O         -0.001  0.000  0.002   -0.000 -0.001  0.001   -0.001  0.002  0.000
 H          0.029 -0.152 -0.020    0.001  0.003 -0.019   -0.022 -0.005  0.010
 H         -0.266 -0.235 -0.026    0.004 -0.003  0.007   -0.002  0.003  0.003
 H         -0.182 -0.174 -0.006   -0.041 -0.038  0.007    0.002  0.006  0.001
 H          0.010 -0.012  0.019   -0.014  0.012 -0.015    0.015 -0.007  0.002
 H          0.269  0.079 -0.050    0.022 -0.058  0.200   -0.010  0.004 -0.017
 H         -0.234  0.222  0.077    0.126 -0.264  0.825    0.120 -0.173  0.540
 H          0.473  0.454  0.127   -0.049  0.110 -0.363    0.076 -0.259  0.745
 H          0.057  0.004 -0.016    0.015 -0.012 -0.008    0.017 -0.014 -0.011
 TransDip  -0.013 -0.053  0.009   -0.016 -0.018  0.063    0.061 -0.066  0.251

 Mode:                13                     14                     15
 Frequency:       900.80                 999.06                1124.17
 Force Cnst:      0.9993                 0.6739                 1.6386
 Red. Mass:       2.0902                 1.1460                 2.2007
 IR Active:          YES                    YES                    YES
 IR Intens:       11.516                 22.151                 22.295
 Raman Active:       YES                    YES                    YES
               X      Y      Z        X      Y      Z        X      Y      Z
 C         -0.148 -0.069  0.020    0.001  0.001  0.002   -0.129 -0.098  0.005
 O          0.069 -0.115 -0.074   -0.000  0.001  0.006    0.162  0.021 -0.036
 C          0.018  0.109  0.034   -0.013  0.031 -0.105   -0.054  0.139  0.052
 C          0.057  0.141  0.056    0.003 -0.007  0.019    0.004 -0.131 -0.045
 O         -0.001  0.000  0.001   -0.000  0.000  0.000   -0.000 -0.002  0.002
 H         -0.333 -0.062  0.077    0.010  0.003 -0.006   -0.486 -0.082  0.116
 H         -0.040  0.033  0.030    0.014  0.003 -0.011    0.088  0.127  0.056
 H         -0.081  0.028  0.033   -0.020 -0.012 -0.000   -0.009  0.141  0.035
 H          0.002 -0.000 -0.003    0.002 -0.002  0.003   -0.003  0.009 -0.017
 H         -0.131 -0.064  0.008    0.084 -0.274  0.799    0.121  0.331  0.108
 H          0.698  0.045 -0.163   -0.035  0.091 -0.289   -0.518 -0.023  0.046
 H         -0.364 -0.303 -0.113    0.051 -0.127  0.393    0.350  0.255  0.055
 H          0.041 -0.013 -0.020    0.001 -0.008 -0.003    0.014 -0.001 -0.008
 TransDip  -0.017  0.105  0.020   -0.007 -0.070  0.133   -0.147  0.020  0.029

 Mode:                16                     17                     18
 Frequency:      1175.06                1186.37                1278.27
 Force Cnst:      1.8978                 1.0615                 2.3658
 Red. Mass:       2.3328                 1.2800                 2.4575
 IR Active:          YES                    YES                    YES
 IR Intens:      137.341                  1.134                177.031
 Raman Active:       YES                    YES                    YES
               X      Y      Z        X      Y      Z        X      Y      Z
 C         -0.192  0.080  0.065   -0.020  0.036 -0.133   -0.041 -0.143 -0.034
 O          0.186  0.085 -0.014   -0.000 -0.024  0.058    0.033  0.203  0.060
 C          0.032 -0.099 -0.032   -0.003  0.003  0.001    0.064 -0.180 -0.071
 C         -0.060 -0.018 -0.003    0.005  0.004  0.001   -0.045  0.045  0.017
 O          0.001 -0.001 -0.000   -0.000  0.000 -0.001    0.001 -0.001 -0.000
 H          0.589  0.023 -0.110   -0.074 -0.164  0.298   -0.519 -0.107  0.094
 H         -0.509 -0.264  0.012   -0.451 -0.104  0.359    0.373  0.307  0.090
 H         -0.086 -0.291  0.036    0.705  0.112 -0.034    0.112  0.360  0.022
 H         -0.006  0.005 -0.004    0.000 -0.001  0.003   -0.009  0.006 -0.003
 H         -0.084 -0.233 -0.078    0.011  0.009  0.022    0.006 -0.247 -0.089
 H         -0.094 -0.022  0.004    0.018  0.006 -0.015    0.059  0.006  0.015
 H         -0.148 -0.120 -0.004    0.007 -0.000  0.013   -0.291 -0.228 -0.038
 H         -0.007  0.010  0.006   -0.000 -0.002 -0.000   -0.025  0.016  0.016
 TransDip  -0.324 -0.189  0.004    0.010  0.016 -0.028   -0.294 -0.307 -0.029

 Mode:                19                     20                     21
 Frequency:      1351.76                1435.23                1487.77
 Force Cnst:      1.2567                 1.4349                 1.5283
 Red. Mass:       1.1673                 1.1823                 1.1719
 IR Active:          YES                    YES                    YES
 IR Intens:        7.611                  9.677                  0.847
 Raman Active:       YES                    YES                    YES
               X      Y      Z        X      Y      Z        X      Y      Z
 C          0.002  0.005  0.000   -0.041 -0.011  0.007   -0.085 -0.036  0.001
 O         -0.000 -0.035 -0.010    0.019  0.010  0.000   -0.029 -0.030 -0.005
 C          0.067 -0.016 -0.015   -0.072 -0.069 -0.014   -0.000  0.041  0.014
 C         -0.080  0.030  0.019   -0.056  0.001  0.008    0.046  0.002 -0.005
 O         -0.000  0.001 -0.000    0.001 -0.002  0.001    0.000 -0.002  0.001
 H          0.058 -0.004 -0.006    0.220 -0.016 -0.071    0.600 -0.080 -0.151
 H          0.008 -0.000 -0.008    0.147  0.135 -0.028    0.380  0.401  0.021
 H          0.012 -0.023 -0.002    0.155  0.070  0.033    0.357  0.233  0.076
 H          0.002 -0.004  0.006   -0.008  0.012 -0.018   -0.004  0.008 -0.014
 H          0.614  0.581  0.132    0.255  0.304  0.072   -0.114 -0.073 -0.011
 H         -0.199  0.043  0.036    0.625 -0.121 -0.121   -0.228  0.055  0.049
 H         -0.363 -0.271 -0.038    0.324  0.405  0.087   -0.083 -0.139 -0.033
 H          0.002 -0.009 -0.003   -0.010  0.024  0.011    0.007  0.011 -0.002
 TransDip   0.034  0.076  0.031   -0.069 -0.070 -0.015    0.014  0.025  0.006

 Mode:                22                     23                     24
 Frequency:      1497.22                1507.83                1655.04
 Force Cnst:      1.3846                 1.4016                 1.7492
 Red. Mass:       1.0484                 1.0464                 1.0839
 IR Active:          YES                    YES                    YES
 IR Intens:       13.937                 12.711                118.705
 Raman Active:       YES                    YES                    YES
               X      Y      Z        X      Y      Z        X      Y      Z
 C          0.019  0.001 -0.055    0.031 -0.047  0.007    0.006  0.002 -0.000
 O          0.005 -0.001 -0.012    0.006 -0.013 -0.001   -0.001 -0.002 -0.001
 C          0.001  0.000 -0.001    0.001  0.003  0.001   -0.010 -0.006  0.000
 C         -0.008 -0.002  0.000   -0.005 -0.002  0.000    0.011  0.005 -0.001
 O         -0.001  0.000 -0.000   -0.001  0.002 -0.001   -0.005 -0.063  0.029
 H          0.250 -0.259  0.406    0.067  0.197 -0.474   -0.015  0.014 -0.011
 H          0.006  0.313  0.551   -0.309 -0.139  0.353   -0.026 -0.020  0.012
 H         -0.535 -0.047 -0.100   -0.203  0.667  0.036   -0.017  0.015 -0.004
 H          0.002  0.001 -0.005    0.004 -0.012  0.021   -0.140  0.328 -0.570
 H          0.006  0.005 -0.001    0.013  0.012  0.010    0.006  0.011  0.008
 H          0.030 -0.010 -0.005    0.011 -0.004 -0.006   -0.020  0.012  0.004
 H          0.017  0.027  0.002    0.008  0.011  0.006   -0.010 -0.030  0.008
 H          0.009  0.000 -0.002    0.003 -0.022 -0.007    0.226  0.689  0.111
 TransDip   0.069  0.042  0.088    0.028  0.110 -0.015   -0.066  0.278 -0.201

 Mode:                25                     26                     27
 Frequency:      1742.47                3044.48                3117.53
 Force Cnst:      8.3347                 5.6458                 6.3395
 Red. Mass:       4.6592                 1.0338                 1.1071
 IR Active:          YES                    YES                    YES
 IR Intens:      167.316                 49.234                 28.390
 Raman Active:       YES                    YES                    YES
               X      Y      Z        X      Y      Z        X      Y      Z
 C         -0.015 -0.023 -0.006    0.043 -0.008 -0.021   -0.030  0.043 -0.079
 O         -0.049 -0.027  0.000    0.002  0.001 -0.000   -0.000 -0.000  0.000
 C          0.391  0.199  0.017   -0.003 -0.000  0.000    0.000  0.000  0.000
 C         -0.347 -0.117  0.004    0.000  0.000  0.000    0.000 -0.000 -0.000
 O         -0.001 -0.008  0.006   -0.000 -0.000 -0.000   -0.000 -0.000  0.000
 H          0.026 -0.031 -0.022   -0.054 -0.303 -0.150   -0.005  0.018 -0.014
 H          0.082  0.064 -0.040   -0.416  0.450 -0.253    0.441 -0.485  0.253
 H          0.113  0.036  0.020   -0.069 -0.060  0.658   -0.082 -0.046  0.699
 H         -0.019  0.044 -0.082   -0.000  0.000 -0.001    0.000 -0.000 -0.000
 H         -0.117 -0.477 -0.138    0.025 -0.015 -0.007   -0.000 -0.002 -0.002
 H          0.248 -0.287 -0.130    0.002  0.005  0.001   -0.000  0.000 -0.001
 H          0.064  0.425  0.122    0.001 -0.002 -0.001    0.000  0.000  0.001
 H          0.045  0.088 -0.002    0.002  0.001  0.004    0.002  0.001 -0.002
 TransDip   0.332  0.247  0.004    0.219  0.036 -0.032   -0.055  0.083 -0.139

 Mode:                28                     29                     30
 Frequency:      3162.55                3176.87                3192.46
 Force Cnst:      6.3945                 6.5501                 6.4233
 Red. Mass:       1.0851                 1.1015                 1.0697
 IR Active:          YES                    YES                    YES
 IR Intens:        9.035                 14.721                  0.487
 Raman Active:       YES                    YES                    YES
               X      Y      Z        X      Y      Z        X      Y      Z
 C         -0.001 -0.009 -0.004    0.001 -0.080 -0.045    0.000 -0.002 -0.001
 O         -0.000  0.000 -0.000   -0.000  0.000  0.000   -0.000  0.000  0.000
 C         -0.064  0.047  0.023    0.007 -0.004 -0.002    0.026 -0.009 -0.006
 C         -0.010 -0.007 -0.001    0.003  0.001 -0.000   -0.069 -0.007  0.007
 O          0.000 -0.000  0.000   -0.000  0.000 -0.000    0.000  0.000 -0.000
 H          0.020  0.094  0.046    0.149  0.828  0.408    0.002  0.017  0.009
 H          0.001  0.005 -0.003   -0.148  0.153 -0.100   -0.005  0.004 -0.003
 H          0.002 -0.000  0.001   -0.020 -0.034  0.220   -0.001 -0.001  0.008
 H         -0.000 -0.000  0.001    0.000 -0.000  0.000   -0.000 -0.000  0.000
 H          0.713 -0.572 -0.270   -0.069  0.058  0.027   -0.188  0.146  0.070
 H          0.043  0.196  0.056   -0.007 -0.033 -0.009    0.123  0.525  0.151
 H          0.125 -0.106 -0.050   -0.027  0.022  0.010    0.577 -0.483 -0.230
 H         -0.001 -0.000 -0.005   -0.000 -0.002  0.001   -0.000 -0.001  0.001
 TransDip  -0.043  0.085  0.016   -0.005 -0.113 -0.048    0.022  0.001 -0.001

 Mode:                31                     32                     33
 Frequency:      3290.15                3817.10                3935.97
 Force Cnst:      7.1252                 9.0157                 9.8254
 Red. Mass:       1.1172                 1.0502                 1.0765
 IR Active:          YES                    YES                    YES
 IR Intens:        2.311                102.024                 57.534
 Raman Active:       YES                    YES                    YES
               X      Y      Z        X      Y      Z        X      Y      Z
 C         -0.000  0.000 -0.000   -0.001 -0.000  0.000   -0.000 -0.000  0.000
 O          0.000  0.001  0.000    0.000 -0.001 -0.000    0.000 -0.000 -0.000
 C          0.006 -0.004 -0.002    0.000  0.001  0.000    0.000  0.001  0.000
 C          0.018 -0.092 -0.032   -0.000 -0.000 -0.000   -0.000 -0.000 -0.000
 O         -0.000 -0.000  0.000   -0.008  0.032 -0.042   -0.029 -0.041 -0.045
 H         -0.000  0.000  0.000    0.000  0.000 -0.000    0.000  0.000  0.000
 H         -0.001 -0.000 -0.000    0.003 -0.001  0.000    0.002 -0.001  0.000
 H         -0.000 -0.000  0.000    0.002  0.000 -0.002    0.000  0.000 -0.001
 H          0.001  0.001 -0.001   -0.156 -0.316 -0.187    0.346  0.768  0.368
 H         -0.052  0.039  0.019    0.002 -0.004 -0.001    0.001 -0.002 -0.001
 H          0.191  0.750  0.213   -0.000  0.000  0.000   -0.000 -0.001  0.000
 H         -0.435  0.350  0.169    0.000  0.000  0.001    0.001  0.000  0.000
 H          0.001  0.001  0.000    0.287 -0.193  0.847    0.110 -0.115  0.353
 TransDip   0.011 -0.047 -0.010    0.123 -0.186  0.235    0.121  0.019  0.210

 STANDARD THERMODYNAMIC QUANTITIES AT   298.15 K  AND     1.00 ATM

   This Molecule has  0 Imaginary Frequencies
   Zero point vibrational energy:       68.675 kcal/mol

   Atom    1 Element C  Has Mass   12.00000
   Atom    2 Element O  Has Mass   15.99491
   Atom    3 Element C  Has Mass   12.00000
   Atom    4 Element C  Has Mass   12.00000
   Atom    5 Element O  Has Mass   15.99491
   Atom    6 Element H  Has Mass    1.00783
   Atom    7 Element H  Has Mass    1.00783
   Atom    8 Element H  Has Mass    1.00783
   Atom    9 Element H  Has Mass    1.00783
   Atom   10 Element H  Has Mass    1.00783
   Atom   11 Element H  Has Mass    1.00783
   Atom   12 Element H  Has Mass    1.00783
   Atom   13 Element H  Has Mass    1.00783
   Molecular Mass:    76.052460 amu
   Principal axes and moments of inertia in amu*Bohr^2:
                             1           2           3
    Eigenvalues --      424.56157   491.96507   850.05677
          X              -0.32961     0.85503    -0.40035
          Y               0.72903     0.49994     0.46752
          Z              -0.59990     0.13776     0.78813
   Rotational Symmetry Number is   1
   The Molecule is an Asymmetric Top
   Translational Enthalpy:        0.889 kcal/mol
   Rotational Enthalpy:           0.889 kcal/mol
   Vibrational Enthalpy:         72.332 kcal/mol
   gas constant (RT):             0.592 kcal/mol
   Translational Entropy:        38.902  cal/mol.K
   Rotational Entropy:           26.676  cal/mol.K
   Vibrational Entropy:          24.936  cal/mol.K

   Total Enthalpy:               74.702 kcal/mol
   Total Entropy:                90.514  cal/mol.K
Archival summary:
1\1\nid00472\FREQ\ProcedureUnspecified\BasisUnspecified\238\cgrambow\TueFeb1223:48:352019TueFeb1223:48:352019\0\\#,FREQ,ProcedureUnspecified,BasisUnspecified,\\0,1\O\C,1,1.35608\H,2,1.08777,1,115.327\C,2,1.32353,1,122.252,3,179.237,0\H,4,1.0799,2,119.661,1,-178.155,0\H,4,1.08266,2,121.479,1,0.305291,0\C,1,1.41903,2,115.393,3,12.3829,0\H,7,1.08756,1,106.678,2,-173.42,0\H,7,1.09343,1,110.781,2,67.7799,0\H,7,1.09348,1,110.843,2,-54.5357,0\H,1,2.06215,2,100.595,3,122.322,0\O,11,0.963466,1,152.782,2,-53.2221,0\H,12,0.958708,11,104.016,1,56.2031,0\\\@

 Total job time:  1248.50s(wall), 4429.95s(cpu) 
 Tue Feb 12 23:48:35 2019

        *************************************************************
        *                                                           *
        *  Thank you very much for using Q-Chem.  Have a nice day.  *
        *                                                           *
        *************************************************************


