
Running Job 1 of 3 ts_optfreq0255.in
qchem ts_optfreq0255.in_18665.0 /tmp/qchem18665/ 1
/global/common/cori/software/qchem/5.1/exe/qcprog.exe ts_optfreq0255.in_18665.0 /tmp/qchem18665/
Check license passed

                  Welcome to Q-Chem
     A Quantum Leap Into The Future Of Chemistry


 Q-Chem 5.1, Q-Chem, Inc., Pleasanton, CA (2018)

 Yihan Shao,  Zhengting Gan,  E. Epifanovsky,  A. T. B. Gilbert,  M. Wormit,  
 J. Kussmann,  A. W. Lange,  A. Behn,  Jia Deng,  Xintian Feng,  D. Ghosh,  
 M. Goldey,  P. R. Horn,  L. D. Jacobson,  I. Kaliman,  T. Kus,  A. Landau,  
 Jie Liu,  E. I. Proynov,  R. M. Richard,  R. P. Steele,  E. J. Sundstrom,  
 H. L. Woodcock III,  P. M. Zimmerman,  D. Zuev,  B. Albrecht,  E. Alguire,  
 S. A. Baeppler,  D. Barton,  Z. Benda,  Y. A. Bernard,  E. J. Berquist,  
 K. B. Bravaya,  H. Burton,  D. Casanova,  Chun-Min Chang,  Yunqing Chen,  
 A. Chien,  K. D. Closser,  M. P. Coons,  S. Coriani,  S. Dasgupta,  
 A. L. Dempwolff,  M. Diedenhofen,  Hainam Do,  R. G. Edgar,  Po-Tung Fang,  
 S. Faraji,  S. Fatehi,  Qingguo Feng,  K. D. Fenk,  J. Fosso-Tande,  
 Qinghui Ge,  A. Ghysels,  G. Gidofalvi,  J. Gomes,  J. Gonthier,  A. Gunina,  
 D. Hait,  M. W. D. Hanson-Heine,  P. H. P. Harbach,  A. W. Hauser,  
 J. E. Herr,  E. G. Hohenstein,  Z. C. Holden,  Kerwin Hui,  B. C. Huynh,  
 T.-C. Jagau,  Hyunjun Ji,  B. Kaduk,  K. Khistyaev,  Jaehoon Kim,  
 P. Klunzinger,  K. Koh,  D. Kosenkov,  L. Koulias,  T. Kowalczyk,  
 C. M. Krauter,  A. Kunitsa,  Ka Un Lao,  A. Laurent,  K. V. Lawler,  
 Joonho Lee,  D. Lefrancois,  S. Lehtola,  D. S. Levine,  Yi-Pei Li,  
 You-Sheng Lin,  Fenglai Liu,  E. Livshits,  A. Luenser,  P. Manohar,  
 E. Mansoor,  S. F. Manzer,  Shan-Ping Mao,  Yuezhi Mao,  N. Mardirossian,  
 A. V. Marenich,  T. Markovich,  L. A. Martinez-Martinez,  S. A. Maurer,  
 N. J. Mayhall,  S. C. McKenzie,  J.-M. Mewes,  A. F. Morrison,  
 J. W. Mullinax,  K. Nanda,  T. S. Nguyen-Beck,  R. Olivares-Amaya,  
 J. A. Parkhill,  T. M. Perrine,  F. Plasser,  P. Pokhilko,  S. Prager,  
 A. Prociuk,  E. Ramos,  D. R. Rehn,  F. Rob,  M. Schneider,  N. Sergueev,  
 S. M. Sharada,  S. Sharma,  D. W. Small,  T. Stauch,  T. Stein,  
 Yu-Chuan Su,  A. J. W. Thom,  A. Tkatchenko,  T. Tsuchimochi,  N. M. Tubman,  
 L. Vogt,  M. L. Vidal,  O. Vydrov,  M. A. Watson,  J. Wenzel,  
 M. de Wergifosse,  T. A. Wesolowski,  A. White,  J. Witte,  A. Yamada,  
 Jun Yang,  K. Yao,  S. Yeganeh,  S. R. Yost,  Zhi-Qiang You,  A. Zech,  
 Igor Ying Zhang,  Xing Zhang,  Yan Zhao,  Ying Zhu,  B. R. Brooks,  
 G. K. L. Chan,  C. J. Cramer,  M. S. Gordon,  W. J. Hehre,  A. Klamt,  
 M. W. Schmidt,  C. D. Sherrill,  D. G. Truhlar,  A. Aspuru-Guzik,  R. Baer,  
 A. T. Bell,  N. A. Besley,  Jeng-Da Chai,  R. A. DiStasio Jr.,  A. Dreuw,  
 B. D. Dunietz,  T. R. Furlani,  Chao-Ping Hsu,  Yousung Jung,  Jing Kong,  
 D. S. Lambrecht,  WanZhen Liang,  C. Ochsenfeld,  V. A. Rassolov,  
 L. V. Slipchenko,  J. E. Subotnik,  T. Van Voorhis,  J. M. Herbert,  
 A. I. Krylov,  P. M. W. Gill,  M. Head-Gordon

 Contributors to earlier versions of Q-Chem not listed above: 
 R. D. Adamson,  B. Austin,  J. Baker,  G. J. O. Beran,  K. Brandhorst,  
 S. T. Brown,  E. F. C. Byrd,  A. K. Chakraborty,  C.-L. Cheng,  
 Siu Hung Chien,  D. M. Chipman,  D. L. Crittenden,  H. Dachsel,  
 R. J. Doerksen,  A. D. Dutoi,  L. Fusti-Molnar,  W. A. Goddard III,  
 A. Golubeva-Zadorozhnaya,  S. R. Gwaltney,  G. Hawkins,  A. Heyden,  
 S. Hirata,  G. Kedziora,  F. J. Keil,  C. Kelley,  Jihan Kim,  R. A. King,  
 R. Z. Khaliullin,  P. P. Korambath,  W. Kurlancheek,  A. M. Lee,  M. S. Lee,  
 S. V. Levchenko,  Ching Yeh Lin,  D. Liotard,  R. C. Lochan,  I. Lotan,  
 P. E. Maslen,  N. Nair,  D. P. O'Neill,  D. Neuhauser,  E. Neuscamman,  
 C. M. Oana,  R. Olson,  B. Peters,  R. Peverati,  P. A. Pieniazek,  
 Y. M. Rhee,  J. Ritchie,  M. A. Rohrdanz,  E. Rosta,  N. J. Russ,  
 H. F. Schaefer III,  N. E. Schultz,  N. Shenvi,  A. C. Simmonett,  A. Sodt,  
 D. Stuck,  K. S. Thanthiriwatte,  V. Vanovschi,  Tao Wang,  A. Warshel,  
 C. F. Williams,  Q. Wu,  X. Xu,  W. Zhang

 Please cite Q-Chem as follows:
 Y. Shao et al., Mol. Phys. 113, 184-215 (2015)
 DOI: 10.1080/00268976.2014.952696

 Q-Chem 5.1.0 for Intel X86 EM64T Linux

 Parts of Q-Chem use Armadillo 8.300.2 (Tropical Shenanigans).
 http://arma.sourceforge.net/

 Q-Chem begins on Tue Feb 12 23:30:30 2019  

Host: cori07
0

     Scratch files written to /tmp/qchem18665//
 Jun2518 |scratch|qcdevops|jenkins|workspace|build_RNUM -1
Processing $rem in /global/common/cori/software/qchem/5.1/config/preferences.
 MEM_TOTAL  96000 

Checking the input file for inconsistencies... 	...done.

--------------------------------------------------------------
User input:
--------------------------------------------------------------
$molecule
0 1
C   1.8062364793   0.5999609486   0.5916814464
O   0.5384687270   0.1097611373   0.9998078958
C  -0.0541285838  -0.6589362931  -0.0166915338
C  -1.4765515916  -0.6953640167  -0.0699333854
O  -1.5665679404   0.3514781520  -1.6771172351
H   2.2366602637   1.1306622144   1.4496275036
H   2.4860983232  -0.2223887745   0.2999437419
H   1.7185969552   1.2882708721  -0.2694248698
H  -0.3937535518   0.0668654971  -1.2001658492
H   0.4775111097  -1.5885976225  -0.2692690102
H  -1.9727667490  -1.5515518899  -0.5249936917
H  -2.0857379941  -0.0890555591   0.5990437060
H  -1.7752624472   1.2781933344  -1.4228957184
$end

$rem
JOBTYPE                   FREQ
METHOD                    wB97X-D3
BASIS                     def2-TZVP
UNRESTRICTED              TRUE
SCF_ALGORITHM             DIIS
MAX_SCF_CYCLES            100
SCF_CONVERGENCE           8
SYM_IGNORE                TRUE
SYMMETRY                  FALSE
WAVEFUNCTION_ANALYSIS     FALSE
$end

--------------------------------------------------------------
 Adding empirical dispersion correction 
 ----------------------------------------------------------------
 Doing -D3(0) with
 s6  =   1.00000
 s8  =   1.00000
 rs6 =   1.28100
 rs8 =   1.09400
 -D3 energy without 3body term =     -0.0026450716 hartrees
 ----------------------------------------------------------------
             Standard Nuclear Orientation (Angstroms)
    I     Atom           X                Y                Z
 ----------------------------------------------------------------
    1      C       1.8062364793     0.5999609486     0.5916814464
    2      O       0.5384687270     0.1097611373     0.9998078958
    3      C      -0.0541285838    -0.6589362931    -0.0166915338
    4      C      -1.4765515916    -0.6953640167    -0.0699333854
    5      O      -1.5665679404     0.3514781520    -1.6771172351
    6      H       2.2366602637     1.1306622144     1.4496275036
    7      H       2.4860983232    -0.2223887745     0.2999437419
    8      H       1.7185969552     1.2882708721    -0.2694248698
    9      H      -0.3937535518     0.0668654971    -1.2001658492
   10      H       0.4775111097    -1.5885976225    -0.2692690102
   11      H      -1.9727667490    -1.5515518899    -0.5249936917
   12      H      -2.0857379941    -0.0890555591     0.5990437060
   13      H      -1.7752624472     1.2781933344    -1.4228957184
 ----------------------------------------------------------------
 Nuclear Repulsion Energy =   186.0600930692 hartrees
 There are       21 alpha and       21 beta electrons
 Requested basis set is def2-TZVP
 There are 87 shells and 203 basis functions

 Total QAlloc Memory Limit  96000 MB
 Mega-Array Size       188 MB
 MEM_STATIC part       192 MB

                       Distance Matrix (Angstroms)
             C (  1)   O (  2)   C (  3)   C (  4)   O (  5)   H (  6)
   O (  2)  1.419189
   C (  3)  2.327208  1.405467
   C (  4)  3.590585  2.419273  1.423885
   O (  5)  4.072469  3.414020  2.462808  1.920162
   H (  6)  1.096804  2.031854  3.255836  4.408104  4.984797
   H (  7)  1.106156  2.096043  2.596841  4.007881  4.545569  1.792969
   H (  8)  1.105873  2.095839  2.645382  3.766109  3.694792  1.802324
   H (  9)  2.887016  2.389720  1.429246  1.740940  1.297683  3.882286
   H ( 10)  2.701210  2.121013  1.100321  2.157768  3.150268  3.666549
   H ( 11)  4.489637  3.375098  2.176306  1.089205  2.261395  5.367744
   H ( 12)  3.952501  2.662067  2.198029  1.089150  2.375819  4.571032
   H ( 13)  4.164812  3.547968  2.948251  2.411361  0.983353  4.936464
             H (  7)   H (  8)   H (  9)   H ( 10)   H ( 11)   H ( 12)
   H (  8)  1.787549
   H (  9)  3.259991  2.611539
   H ( 10)  2.494985  3.133156  2.089552
   H ( 11)  4.725323  4.664341  2.359749  2.463865
   H ( 12)  4.583549  4.138143  2.474728  3.094001  1.848004
   H ( 13)  4.835196  3.679355  1.850808  3.824178  2.975348  2.460488

 
 A cutoff of  1.0D-11 yielded   3553 shell pairs
 There are     19533 function pairs (     24659 Cartesian)
 
 -------------------------------------------------------
 OpenMP Integral Computing Module                       
 Release: version 1.0, May 2013, Q-Chem Inc. Pittsburgh 
 -------------------------------------------------------
 Integral Job Info:
 Integral job number is                      11
 Integral operator is                         1
 short-range coefficients              19572800
 long-range coefficients              100000000
 Omega coefficients                         250
 if combine SR and LR in K                    1
 Integral screening is                        0
 Integral computing path is                   2
 max size of driver memory is            800000
 size of driver memory is                776718
 size of scratch memory is              4473992
 max col of scratch BK array              10000
 max len of scratch array in speh3          662
 max len of scratch index in speh4           32
 max int batch size is                      520
 min int batch size is                       52
 fixed nKL is                                52
 max L of basis functions is                  3
 order of int derivative is                   0
 number of shells is                         87
 number of basis is                         228
 number of cartesian basis is               228
 number of contracted shell pairs          3553
 number of primitive shell pairs           8039
 maxK2 (contraction) of shell pair           36
 max number of K2 of shell pair               1
 max number of CS2 of shell pair            571
 max number of PS2 of shell pair           1008
 mem total for path MDJ                  561332
 -------------------------------------------------------
 Smallest overlap matrix eigenvalue = 2.87E-04
 Guess from superposition of atomic densities
 Warning:  Energy on first SCF cycle will be non-variational
 SAD guess density has 42.000000 electrons

 -----------------------------------------------------------------------
  General SCF calculation program by
  Eric Jon Sundstrom, Paul Horn, Yuezhi Mao, Dmitri Zuev, Alec White,
  David Stuck, Shaama M.S., Shane Yost, Joonho Lee, David Small,
  Daniel Levine, Susi Lehtola, Hugh Burton, Evgeny Epifanovsky
 -----------------------------------------------------------------------
 Exchange:     0.1957 Hartree-Fock + 1.0000 wB97X-D3 + LR-HF
 Correlation:  1.0000 wB97X-D3
 Using SG-2 standard quadrature grid
 Dispersion:   Grimme D3
 using 16 threads for integral computing
 -------------------------------------------------------
 OpenMP Integral computing Module                
 Release: version 1.0, May 2013, Q-Chem Inc. Pittsburgh 
 -------------------------------------------------------
 using 16 threads for integral computing
 -------------------------------------------------------
 OpenMP Integral computing Module                
 Release: version 1.0, May 2013, Q-Chem Inc. Pittsburgh 
 -------------------------------------------------------
 -------------------------------------------------------
 OpenMP BLAS3 based DFT computing Module                
 Release: version 1.0, May 2013, Q-Chem Inc. Pittsburgh 
 -------------------------------------------------------
 A unrestricted SCF calculation will be
 performed using DIIS
 SCF converges when DIIS error is below 1.0e-08
 ---------------------------------------
  Cycle       Energy         DIIS error
 ---------------------------------------
    1    -270.1927860795      1.76e-02  
    2    -269.3604266782      2.51e-03  
    3    -269.3038515967      3.35e-03  
    4    -269.4619674794      3.33e-04  
    5    -269.4636521023      1.67e-04  
    6    -269.4640834008      4.68e-05  
    7    -269.4641264584      1.40e-05  
    8    -269.4641335554      4.48e-06  
    9    -269.4641357913      1.95e-06  
   10    -269.4641363238      1.04e-06  
   11    -269.4641364166      2.84e-07  
   12    -269.4641364250      1.08e-07  
   13    -269.4641364257      3.97e-08  
   14    -269.4641364258      1.19e-08  
   15    -269.4641364258      2.70e-09  Convergence criterion met
 ---------------------------------------
 SCF time:   CPU 452.23s  wall 36.00s 
<S^2> =          0.000000000
 SCF   energy in the final basis set =     -269.4641364258
 Total energy in the final basis set =     -269.4641364258
 No wavefunction analysis requested
 Calculating MO derivatives via CPSCF
 D1JvT checksum  = 1243320 36215.8077578847
 D1KAT checksum  = 2626572 3519.9870770226
 D1JvT checksum  = 1243320 23749.5720426746
 D1KAT checksum  = 2626572 1577.1554420031
   1         3          39      0.180165    0.026812
   2         3          39      0.038814    0.006794
   3         3          39      0.005711    0.001014
   4         3          39      0.000791    0.000145
   5        19          23      0.000079    0.000016
   6        40           2      0.000003    0.000002
   7        42           0      0.000000    0.000000    Roots Converged
 Time for AOints: 193.5 s (CPU) 13.2 s (wall)
 ------------------------------------------------------------------------------
                     AOints        : Timing summary (seconds)
 ------------------------------------------------------------------------------
     job step          cpu (% of tot)      sys (% of tot)     wall (% of tot)
 ------------------------------------------------------------------------------
  cpscf_lag         0.1503E+04 (43.6)   0.3470E-02 (59.1)   0.3406E+03 (42.0)
  iterzp            0.1753E+04 (50.8)   0.2078E-02 (35.4)   0.4568E+03 (56.3)
  make_fx           0.0000E+00 ( 0.0)   0.0000E+00 ( 0.0)   0.0000E+00 ( 0.0)
  AOints            0.1935E+03 ( 5.6)   0.3180E-03 ( 5.4)   0.1319E+02 ( 1.6)
 ------------------------------------------------------------------------------
   Grand Totals     0.3449E+04          0.5871E-02          0.8109E+03
 ------------------------------------------------------------------------------
 Calculating analytic Hessian of the SCF energy
 Polarizability Matrix (a.u.)
            1           2           3
    1 -62.0934224  -0.0688469  -7.3586781
    2  -0.0688469 -49.6618387   4.0663505
    3  -7.3586781   4.0663505 -50.4404801
 Running MAKENN_D3_FD2ND
 
 Direct stationary perturbation theory relativistic correction:
 
 rels  =       0.086964281487
 relv  =      -0.377194037014
 rel2e =       0.000000000000
 E_rel =      -0.290229755527
 
 Hessian of the SCF Energy
            1           2           3           4           5           6
    1   0.4838559  -0.0139984   0.0419335  -0.1952536  -0.0557639   0.0321163
    2  -0.0139984   0.5475008   0.0346475  -0.0409838  -0.0855850  -0.0004613
    3   0.0419335   0.0346475   0.5812495   0.0646625   0.0165215  -0.1026648
    4  -0.1952536  -0.0409838   0.0646625   0.3908447   0.1470718   0.0005383
    5  -0.0557639  -0.0855850   0.0165215   0.1470718   0.2128986   0.0989332
    6   0.0321163  -0.0004613  -0.1026648   0.0005383   0.0989332   0.2925293
    7  -0.0290897  -0.0264704  -0.0319793  -0.1116404  -0.0268937  -0.0417732
    8  -0.0143394  -0.0160675  -0.0109185  -0.0412986  -0.1089350  -0.0899384
    9  -0.0073743  -0.0007687   0.0038084  -0.0622105  -0.0902803  -0.1593756
   10  -0.0051118  -0.0021557  -0.0013050  -0.0151533  -0.0096054   0.0123106
   11   0.0024356  -0.0000915  -0.0063612  -0.0330090  -0.0067047  -0.0069170
   12  -0.0029081  -0.0021952  -0.0021745  -0.0335054  -0.0054581   0.0092910
   13   0.0028369   0.0000742  -0.0004579  -0.0066601  -0.0053348  -0.0033731
   14  -0.0051654  -0.0027146   0.0025347   0.0072730   0.0017888   0.0148310
   15   0.0063893   0.0027466  -0.0023718  -0.0064955  -0.0057694  -0.0119999
   16  -0.0820479  -0.0397280  -0.0682785  -0.0209225  -0.0208483  -0.0257806
   17  -0.0437850  -0.1099316  -0.0949347  -0.0087904  -0.0073161  -0.0086845
   18  -0.0792640  -0.1007608  -0.2192428   0.0059591   0.0071393   0.0106095
   19  -0.1253935   0.1014056   0.0302053  -0.0364146   0.0130534   0.0121070
   20   0.1053248  -0.1957124  -0.0463844  -0.0108682   0.0145266   0.0028751
   21   0.0315668  -0.0443990  -0.0682609   0.0128962  -0.0057769  -0.0016088
   22  -0.0551248   0.0212883  -0.0298401  -0.0103315  -0.0285418   0.0287443
   23   0.0194958  -0.1413979   0.1088490  -0.0113555  -0.0070384   0.0097416
   24  -0.0261477   0.1102095  -0.1914043   0.0098994   0.0084615  -0.0073950
   25   0.0007253   0.0023629  -0.0012810   0.0029736   0.0046799  -0.0114572
   26   0.0027148   0.0026222  -0.0029114  -0.0066534   0.0024445  -0.0136441
   27  -0.0002625  -0.0002258   0.0021024   0.0021117   0.0044550  -0.0144411
   28   0.0046219  -0.0015910  -0.0015751   0.0051677  -0.0164238  -0.0047261
   29   0.0039458   0.0009818  -0.0013965  -0.0028140  -0.0176774  -0.0107998
   30   0.0034817   0.0010785  -0.0004885   0.0065072  -0.0281846  -0.0131526
   31  -0.0001684  -0.0005483  -0.0015876  -0.0053177  -0.0018083   0.0041467
   32   0.0001568   0.0007544   0.0001879   0.0010991   0.0023119  -0.0007154
   33  -0.0000124  -0.0003439  -0.0002669  -0.0009364  -0.0023355   0.0026218
   34  -0.0000875  -0.0001076   0.0000383   0.0034259   0.0008257  -0.0014626
   35  -0.0008326  -0.0004325   0.0003071   0.0001640  -0.0007958   0.0029843
   36   0.0003846   0.0004229  -0.0001303   0.0008927   0.0022059  -0.0023667
   37   0.0002373   0.0004522  -0.0005351  -0.0007182  -0.0004108  -0.0013905
   38  -0.0001889   0.0000737  -0.0001410   0.0001650   0.0000819   0.0017954
   39   0.0000966   0.0000497  -0.0001555  -0.0003192   0.0000884  -0.0020471
            7           8           9          10          11          12
    1  -0.0290897  -0.0143394  -0.0073743  -0.0051118   0.0024356  -0.0029081
    2  -0.0264704  -0.0160675  -0.0007687  -0.0021557  -0.0000915  -0.0021952
    3  -0.0319793  -0.0109185   0.0038084  -0.0013050  -0.0063612  -0.0021745
    4  -0.1116404  -0.0412986  -0.0622105  -0.0151533  -0.0330090  -0.0335054
    5  -0.0268937  -0.1089350  -0.0902803  -0.0096054  -0.0067047  -0.0054581
    6  -0.0417732  -0.0899384  -0.1593756   0.0123106  -0.0069170   0.0092910
    7   0.6096878  -0.1058248   0.1138616  -0.2921199  -0.0216378   0.0414805
    8  -0.1058248   0.4298845   0.1792243   0.0488455  -0.0995336  -0.0053201
    9   0.1138616   0.1792243   0.2485897  -0.0854615   0.0085054  -0.1177968
   10  -0.2921199   0.0488455  -0.0854615   0.5868221   0.0641665  -0.0945073
   11  -0.0216378  -0.0995336   0.0085054   0.0641665   0.4539590   0.2837215
   12   0.0414805  -0.0053201  -0.1177968  -0.0945073   0.2837215   0.2918054
   13   0.0146057   0.0596798  -0.0750078  -0.0629198   0.0454731  -0.0405158
   14   0.0337154   0.0118555  -0.0061417  -0.0305044  -0.0002782  -0.0292266
   15  -0.0452077   0.0137003   0.0253988   0.0385474  -0.0407718   0.0090143
   16  -0.0048169  -0.0000163   0.0029727  -0.0002766  -0.0020732  -0.0008869
   17  -0.0020872   0.0008902   0.0011627  -0.0003960  -0.0005604  -0.0003573
   18   0.0005152   0.0001367   0.0014021   0.0009366  -0.0000426   0.0011129
   19   0.0023830   0.0047449   0.0043041   0.0001344  -0.0008137  -0.0004435
   20  -0.0014497   0.0032639   0.0013782  -0.0001436   0.0001303   0.0003170
   21  -0.0017212   0.0005678  -0.0006113  -0.0002708   0.0004728  -0.0003476
   22   0.0042361   0.0024790   0.0042775  -0.0009658   0.0003815  -0.0004336
   23   0.0028805   0.0024641   0.0014375  -0.0008243   0.0000254  -0.0006640
   24   0.0000018  -0.0027311   0.0013761  -0.0009530   0.0011679  -0.0005332
   25  -0.0698407  -0.0620160   0.0931131   0.0710087  -0.0653503   0.0897112
   26   0.0197083  -0.0188689  -0.0262649  -0.0369308   0.0163166  -0.0198387
   27  -0.0315055  -0.0299039   0.0152534   0.0595374  -0.0209663   0.0283797
   28  -0.1115813   0.1067199   0.0171797  -0.0163468   0.0278929   0.0043983
   29   0.1208264  -0.2191326  -0.0585609  -0.0122309   0.0064627   0.0000726
   30   0.0074980  -0.0453254  -0.0373449   0.0131215  -0.0071845   0.0074378
   31  -0.0036432  -0.0193441  -0.0156416  -0.1164176  -0.1001923  -0.0501802
   32   0.0043802   0.0048450  -0.0030176  -0.1053619  -0.2226171  -0.1067403
   33  -0.0009777  -0.0024249   0.0062513  -0.0463252  -0.1109751  -0.0922215
   34  -0.0089480   0.0187652   0.0166022  -0.1454041   0.0868816   0.0967921
   35  -0.0002038   0.0067646  -0.0054048   0.0839892  -0.1417235  -0.1094567
   36  -0.0039970  -0.0038264   0.0121413   0.1013142  -0.1058528  -0.1471675
   37   0.0007674   0.0016050  -0.0066153  -0.0032495  -0.0041550  -0.0090013
   38   0.0030565   0.0025699  -0.0012695   0.0011518  -0.0053851  -0.0048540
   39  -0.0061954  -0.0032405   0.0009074   0.0030551   0.0052038   0.0131999
           13          14          15          16          17          18
    1   0.0028369  -0.0051654   0.0063893  -0.0820479  -0.0437850  -0.0792640
    2   0.0000742  -0.0027146   0.0027466  -0.0397280  -0.1099316  -0.1007608
    3  -0.0004579   0.0025347  -0.0023718  -0.0682785  -0.0949347  -0.2192428
    4  -0.0066601   0.0072730  -0.0064955  -0.0209225  -0.0087904   0.0059591
    5  -0.0053348   0.0017888  -0.0057694  -0.0208483  -0.0073161   0.0071393
    6  -0.0033731   0.0148310  -0.0119999  -0.0257806  -0.0086845   0.0106095
    7   0.0146057   0.0337154  -0.0452077  -0.0048169  -0.0020872   0.0005152
    8   0.0596798   0.0118555   0.0137003  -0.0000163   0.0008902   0.0001367
    9  -0.0750078  -0.0061417   0.0253988   0.0029727   0.0011627   0.0014021
   10  -0.0629198  -0.0305044   0.0385474  -0.0002766  -0.0003960   0.0009366
   11   0.0454731  -0.0002782  -0.0407718  -0.0020732  -0.0005604  -0.0000426
   12  -0.0405158  -0.0292266   0.0090143  -0.0008869  -0.0003573   0.0011129
   13   0.0781038  -0.1140044   0.0222799  -0.0004833  -0.0003747  -0.0001009
   14  -0.1140044   0.4477565   0.1058135   0.0003318   0.0001805   0.0003280
   15   0.0222799   0.1058135   0.1007928  -0.0004803  -0.0003026  -0.0004083
   16  -0.0004833   0.0003318  -0.0004803   0.0998755   0.0557621   0.0812987
   17  -0.0003747   0.0001805  -0.0003026   0.0557621   0.1155319   0.1067924
   18  -0.0001009   0.0003280  -0.0004083   0.0812987   0.1067924   0.2275917
   19  -0.0002003   0.0003011  -0.0003903   0.0090000  -0.0086994  -0.0024373
   20   0.0001834   0.0001268   0.0001495   0.0082248  -0.0102441  -0.0017713
   21   0.0000233  -0.0004914   0.0004955   0.0146202  -0.0195038  -0.0046039
   22  -0.0009050  -0.0001305  -0.0000318  -0.0002266   0.0080324  -0.0071216
   23  -0.0004933   0.0002185  -0.0000760  -0.0011573   0.0113160  -0.0121390
   24   0.0003283  -0.0014326   0.0013430  -0.0036821   0.0155719  -0.0160726
   25   0.0301082   0.0323364  -0.0490668   0.0004299   0.0003543  -0.0000328
   26  -0.0573602  -0.0342081   0.0065878  -0.0000885  -0.0001568  -0.0000484
   27   0.0475329   0.0009822  -0.0322111   0.0005168   0.0002597  -0.0000335
   28  -0.0014419  -0.0004802   0.0014462  -0.0000558   0.0002624   0.0001580
   29   0.0011893  -0.0023385   0.0062549  -0.0006004   0.0002095   0.0003066
   30  -0.0004925   0.0046446  -0.0115854  -0.0002124  -0.0000129  -0.0001339
   31  -0.0003128  -0.0011273   0.0006842  -0.0005586  -0.0001893   0.0001095
   32  -0.0024914  -0.0108084   0.0048673   0.0001617   0.0000420   0.0000414
   33   0.0046580   0.0172563  -0.0056764  -0.0001430  -0.0000374  -0.0000571
   34   0.0003539  -0.0003560   0.0009325   0.0000818  -0.0000299  -0.0000918
   35  -0.0095289  -0.0017093   0.0137590   0.0000478   0.0000401   0.0000218
   36   0.0081616   0.0029920  -0.0147382   0.0000560   0.0000014  -0.0001026
   37  -0.0530853   0.0778107   0.0313930   0.0000010  -0.0000594   0.0000712
   38   0.0829879  -0.4098694  -0.1069592  -0.0000165  -0.0000013  -0.0000040
   39   0.0369640  -0.1120900  -0.0580533  -0.0000007   0.0000450  -0.0000617
           19          20          21          22          23          24
    1  -0.1253935   0.1053248   0.0315668  -0.0551248   0.0194958  -0.0261477
    2   0.1014056  -0.1957124  -0.0443990   0.0212883  -0.1413979   0.1102095
    3   0.0302053  -0.0463844  -0.0682609  -0.0298401   0.1088490  -0.1914043
    4  -0.0364146  -0.0108682   0.0128962  -0.0103315  -0.0113555   0.0098994
    5   0.0130534   0.0145266  -0.0057769  -0.0285418  -0.0070384   0.0084615
    6   0.0121070   0.0028751  -0.0016088   0.0287443   0.0097416  -0.0073950
    7   0.0023830  -0.0014497  -0.0017212   0.0042361   0.0028805   0.0000018
    8   0.0047449   0.0032639   0.0005678   0.0024790   0.0024641  -0.0027311
    9   0.0043041   0.0013782  -0.0006113   0.0042775   0.0014375   0.0013761
   10   0.0001344  -0.0001436  -0.0002708  -0.0009658  -0.0008243  -0.0009530
   11  -0.0008137   0.0001303   0.0004728   0.0003815   0.0000254   0.0011679
   12  -0.0004435   0.0003170  -0.0003476  -0.0004336  -0.0006640  -0.0005332
   13  -0.0002003   0.0001834   0.0000233  -0.0009050  -0.0004933   0.0003283
   14   0.0003011   0.0001268  -0.0004914  -0.0001305   0.0002185  -0.0014326
   15  -0.0003903   0.0001495   0.0004955  -0.0000318  -0.0000760   0.0013430
   16   0.0090000   0.0082248   0.0146202  -0.0002266  -0.0011573  -0.0036821
   17  -0.0086994  -0.0102441  -0.0195038   0.0080324   0.0113160   0.0155719
   18  -0.0024373  -0.0017713  -0.0046039  -0.0071216  -0.0121390  -0.0160726
   19   0.1507586  -0.1136223  -0.0431949  -0.0003089   0.0052713   0.0004179
   20  -0.1136223   0.2032741   0.0488138   0.0109526  -0.0149018  -0.0054879
   21  -0.0431949   0.0488138   0.0679883  -0.0145293   0.0196016   0.0064912
   22  -0.0003089   0.0109526  -0.0145293   0.0629052  -0.0142064   0.0193284
   23   0.0052713  -0.0149018   0.0196016  -0.0142064   0.1507165  -0.1273549
   24   0.0004179  -0.0054879   0.0064912   0.0193284  -0.1273549   0.2064176
   25  -0.0001424  -0.0000543   0.0000969   0.0013032   0.0004246   0.0003676
   26  -0.0001765  -0.0004299   0.0004434  -0.0000348  -0.0007128   0.0012701
   27   0.0000203  -0.0001057  -0.0001617   0.0000114   0.0003304  -0.0003755
   28  -0.0000849   0.0016233   0.0004755  -0.0004624   0.0001042   0.0001519
   29  -0.0013667   0.0001136   0.0003287  -0.0002291  -0.0006200   0.0004343
   30  -0.0005928   0.0004059   0.0005887  -0.0006350   0.0001087  -0.0000795
   31  -0.0000940   0.0000766   0.0000340  -0.0000325  -0.0000416   0.0000213
   32  -0.0001275  -0.0000972  -0.0000063   0.0000197  -0.0000320   0.0000149
   33   0.0000220   0.0000688   0.0000510  -0.0000187   0.0000272  -0.0000336
   34   0.0003373  -0.0001117  -0.0000839   0.0001081   0.0001016   0.0000127
   35   0.0000469  -0.0000264  -0.0000757  -0.0000511  -0.0000167  -0.0001227
   36  -0.0000678  -0.0002211  -0.0000210   0.0001258   0.0000730   0.0001156
   37   0.0000255  -0.0001357   0.0000872  -0.0001954  -0.0001995   0.0002535
   38  -0.0000171  -0.0000235   0.0000252   0.0000403  -0.0000209  -0.0000009
   39   0.0000501  -0.0000379   0.0000004   0.0001224   0.0000651   0.0001503
           25          26          27          28          29          30
    1   0.0007253   0.0027148  -0.0002625   0.0046219   0.0039458   0.0034817
    2   0.0023629   0.0026222  -0.0002258  -0.0015910   0.0009818   0.0010785
    3  -0.0012810  -0.0029114   0.0021024  -0.0015751  -0.0013965  -0.0004885
    4   0.0029736  -0.0066534   0.0021117   0.0051677  -0.0028140   0.0065072
    5   0.0046799   0.0024445   0.0044550  -0.0164238  -0.0176774  -0.0281846
    6  -0.0114572  -0.0136441  -0.0144411  -0.0047261  -0.0107998  -0.0131526
    7  -0.0698407   0.0197083  -0.0315055  -0.1115813   0.1208264   0.0074980
    8  -0.0620160  -0.0188689  -0.0299039   0.1067199  -0.2191326  -0.0453254
    9   0.0931131  -0.0262649   0.0152534   0.0171797  -0.0585609  -0.0373449
   10   0.0710087  -0.0369308   0.0595374  -0.0163468  -0.0122309   0.0131215
   11  -0.0653503   0.0163166  -0.0209663   0.0278929   0.0064627  -0.0071845
   12   0.0897112  -0.0198387   0.0283797   0.0043983   0.0000726   0.0074378
   13   0.0301082  -0.0573602   0.0475329  -0.0014419   0.0011893  -0.0004925
   14   0.0323364  -0.0342081   0.0009822  -0.0004802  -0.0023385   0.0046446
   15  -0.0490668   0.0065878  -0.0322111   0.0014462   0.0062549  -0.0115854
   16   0.0004299  -0.0000885   0.0005168  -0.0000558  -0.0006004  -0.0002124
   17   0.0003543  -0.0001568   0.0002597   0.0002624   0.0002095  -0.0000129
   18  -0.0000328  -0.0000484  -0.0000335   0.0001580   0.0003066  -0.0001339
   19  -0.0001424  -0.0001765   0.0000203  -0.0000849  -0.0013667  -0.0005928
   20  -0.0000543  -0.0004299  -0.0001057   0.0016233   0.0001136   0.0004059
   21   0.0000969   0.0004434  -0.0001617   0.0004755   0.0003287   0.0005887
   22   0.0013032  -0.0000348   0.0000114  -0.0004624  -0.0002291  -0.0006350
   23   0.0004246  -0.0007128   0.0003304   0.0001042  -0.0006200   0.0001087
   24   0.0003676   0.0012701  -0.0003755   0.0001519   0.0004343  -0.0000795
   25  -0.0470162   0.0669440  -0.0930052   0.0020879   0.0075267  -0.0112089
   26   0.0669440   0.0454959   0.0387654  -0.0023069  -0.0069000   0.0104877
   27  -0.0930052   0.0387654   0.0065414   0.0012928  -0.0014907   0.0021963
   28   0.0020879  -0.0023069   0.0012928   0.1214293  -0.1145440  -0.0189323
   29   0.0075267  -0.0069000  -0.0014907  -0.1145440   0.2380058   0.0635424
   30  -0.0112089   0.0104877   0.0021963  -0.0189323   0.0635424   0.0533363
   31   0.0011260   0.0002137   0.0010972   0.0009400   0.0009648  -0.0011477
   32   0.0040773  -0.0018866   0.0006601  -0.0006227   0.0001554   0.0022583
   33  -0.0060197   0.0029984  -0.0019651   0.0002906   0.0010407  -0.0022556
   34   0.0002209  -0.0009603  -0.0000681  -0.0041420  -0.0022961   0.0018870
   35   0.0067107  -0.0011443   0.0029657  -0.0003914   0.0010912  -0.0020398
   36  -0.0066945   0.0005712  -0.0027845  -0.0002419  -0.0001404   0.0020170
   37   0.0070155   0.0149305   0.0127208  -0.0001317  -0.0003718   0.0007261
   38   0.0020039  -0.0025718   0.0042739  -0.0002427  -0.0003516   0.0002211
   39  -0.0045229   0.0015836  -0.0025007   0.0000826   0.0004081  -0.0005358
           31          32          33          34          35          36
    1  -0.0001684   0.0001568  -0.0000124  -0.0000875  -0.0008326   0.0003846
    2  -0.0005483   0.0007544  -0.0003439  -0.0001076  -0.0004325   0.0004229
    3  -0.0015876   0.0001879  -0.0002669   0.0000383   0.0003071  -0.0001303
    4  -0.0053177   0.0010991  -0.0009364   0.0034259   0.0001640   0.0008927
    5  -0.0018083   0.0023119  -0.0023355   0.0008257  -0.0007958   0.0022059
    6   0.0041467  -0.0007154   0.0026218  -0.0014626   0.0029843  -0.0023667
    7  -0.0036432   0.0043802  -0.0009777  -0.0089480  -0.0002038  -0.0039970
    8  -0.0193441   0.0048450  -0.0024249   0.0187652   0.0067646  -0.0038264
    9  -0.0156416  -0.0030176   0.0062513   0.0166022  -0.0054048   0.0121413
   10  -0.1164176  -0.1053619  -0.0463252  -0.1454041   0.0839892   0.1013142
   11  -0.1001923  -0.2226171  -0.1109751   0.0868816  -0.1417235  -0.1058528
   12  -0.0501802  -0.1067403  -0.0922215   0.0967921  -0.1094567  -0.1471675
   13  -0.0003128  -0.0024914   0.0046580   0.0003539  -0.0095289   0.0081616
   14  -0.0011273  -0.0108084   0.0172563  -0.0003560  -0.0017093   0.0029920
   15   0.0006842   0.0048673  -0.0056764   0.0009325   0.0137590  -0.0147382
   16  -0.0005586   0.0001617  -0.0001430   0.0000818   0.0000478   0.0000560
   17  -0.0001893   0.0000420  -0.0000374  -0.0000299   0.0000401   0.0000014
   18   0.0001095   0.0000414  -0.0000571  -0.0000918   0.0000218  -0.0001026
   19  -0.0000940  -0.0001275   0.0000220   0.0003373   0.0000469  -0.0000678
   20   0.0000766  -0.0000972   0.0000688  -0.0001117  -0.0000264  -0.0002211
   21   0.0000340  -0.0000063   0.0000510  -0.0000839  -0.0000757  -0.0000210
   22  -0.0000325   0.0000197  -0.0000187   0.0001081  -0.0000511   0.0001258
   23  -0.0000416  -0.0000320   0.0000272   0.0001016  -0.0000167   0.0000730
   24   0.0000213   0.0000149  -0.0000336   0.0000127  -0.0001227   0.0001156
   25   0.0011260   0.0040773  -0.0060197   0.0002209   0.0067107  -0.0066945
   26   0.0002137  -0.0018866   0.0029984  -0.0009603  -0.0011443   0.0005712
   27   0.0010972   0.0006601  -0.0019651  -0.0000681   0.0029657  -0.0027845
   28   0.0009400  -0.0006227   0.0002906  -0.0041420  -0.0003914  -0.0002419
   29   0.0009648   0.0001554   0.0010407  -0.0022961   0.0010912  -0.0001404
   30  -0.0011477   0.0022583  -0.0022556   0.0018870  -0.0020398   0.0020170
   31   0.1135728   0.1076714   0.0565869   0.0104569   0.0144227   0.0055980
   32   0.1076714   0.2337413   0.1055298  -0.0071854  -0.0063460  -0.0052451
   33   0.0565869   0.1055298   0.0984721  -0.0097174  -0.0123290  -0.0016474
   34   0.0104569  -0.0071854  -0.0097174   0.1433796  -0.0950998  -0.1052393
   35   0.0144227  -0.0063460  -0.0123290  -0.0950998   0.1429526   0.1092220
   36   0.0055980  -0.0052451  -0.0016474  -0.1052393   0.1092220   0.1550031
   37   0.0004490  -0.0017772   0.0025931   0.0002172   0.0007261  -0.0002924
   38  -0.0000979  -0.0000626   0.0015246  -0.0004272   0.0013459  -0.0002026
   39   0.0002795   0.0021651  -0.0032727   0.0003982   0.0001688  -0.0003187
           37          38          39
    1   0.0002373  -0.0001889   0.0000966
    2   0.0004522   0.0000737   0.0000497
    3  -0.0005351  -0.0001410  -0.0001555
    4  -0.0007182   0.0001650  -0.0003192
    5  -0.0004108   0.0000819   0.0000884
    6  -0.0013905   0.0017954  -0.0020471
    7   0.0007674   0.0030565  -0.0061954
    8   0.0016050   0.0025699  -0.0032405
    9  -0.0066153  -0.0012695   0.0009074
   10  -0.0032495   0.0011518   0.0030551
   11  -0.0041550  -0.0053851   0.0052038
   12  -0.0090013  -0.0048540   0.0131999
   13  -0.0530853   0.0829879   0.0369640
   14   0.0778107  -0.4098694  -0.1120900
   15   0.0313930  -0.1069592  -0.0580533
   16   0.0000010  -0.0000165  -0.0000007
   17  -0.0000594  -0.0000013   0.0000450
   18   0.0000712  -0.0000040  -0.0000617
   19   0.0000255  -0.0000171   0.0000501
   20  -0.0001357  -0.0000235  -0.0000379
   21   0.0000872   0.0000252   0.0000004
   22  -0.0001954   0.0000403   0.0001224
   23  -0.0001995  -0.0000209   0.0000651
   24   0.0002535  -0.0000009   0.0001503
   25   0.0070155   0.0020039  -0.0045229
   26   0.0149305  -0.0025718   0.0015836
   27   0.0127208   0.0042739  -0.0025007
   28  -0.0001317  -0.0002427   0.0000826
   29  -0.0003718  -0.0003516   0.0004081
   30   0.0007261   0.0002211  -0.0005358
   31   0.0004490  -0.0000979   0.0002795
   32  -0.0017772  -0.0000626   0.0021651
   33   0.0025931   0.0015246  -0.0032727
   34   0.0002172  -0.0004272   0.0003982
   35   0.0007261   0.0013459   0.0001688
   36  -0.0002924  -0.0002026  -0.0003187
   37   0.0486671  -0.0884152  -0.0300102
   38  -0.0884152   0.4142146   0.1055909
   39  -0.0300102   0.1055909   0.0526874
 Gradient time:  CPU 4303.24 s  wall 1239.09 s
 **********************************************************************
 **                                                                  **
 **                       VIBRATIONAL ANALYSIS                       **
 **                       --------------------                       **
 **                                                                  **
 **        VIBRATIONAL FREQUENCIES (CM**-1) AND NORMAL MODES         **
 **     FORCE CONSTANTS (mDYN/ANGSTROM) AND REDUCED MASSES (AMU)     **
 **                  INFRARED INTENSITIES (KM/MOL)                   **
 **                                                                  **
 **********************************************************************
 

 Mode:                 1                      2                      3
 Frequency:     -2131.23                 146.37                 223.47
 Force Cnst:      3.0350                 0.0414                 0.0968
 Red. Mass:       1.1341                 3.2820                 3.2892
 IR Active:          YES                    YES                    YES
 IR Intens:      483.448                  0.770                 10.651
 Raman Active:       YES                    YES                    YES
               X      Y      Z        X      Y      Z        X      Y      Z
 C          0.000 -0.000  0.001   -0.161  0.143 -0.186   -0.001 -0.094 -0.058
 O         -0.002 -0.002  0.003    0.005 -0.115  0.032   -0.132  0.215 -0.100
 C          0.029  0.029 -0.047   -0.041 -0.158  0.095    0.007 -0.070  0.035
 C         -0.042  0.035 -0.047   -0.040  0.014  0.028    0.021 -0.178 -0.051
 O         -0.030 -0.016  0.023    0.203  0.084  0.043    0.082  0.110  0.145
 H         -0.001 -0.001  0.001   -0.111  0.203 -0.248   -0.040  0.093 -0.155
 H         -0.000 -0.001  0.001   -0.056  0.280 -0.326   -0.082 -0.280  0.277
 H         -0.005 -0.004  0.001   -0.444  0.151 -0.150    0.228 -0.340 -0.279
 H          0.756 -0.358  0.525    0.136 -0.142  0.097    0.063 -0.093  0.033
 H         -0.023 -0.036  0.061   -0.122 -0.224  0.168    0.115 -0.055  0.217
 H         -0.015 -0.021  0.031   -0.109  0.069 -0.002    0.159 -0.198 -0.165
 H         -0.012 -0.028  0.033   -0.011  0.086 -0.011   -0.111 -0.298 -0.063
 H         -0.043 -0.024  0.036    0.303  0.105  0.048    0.160  0.088  0.290
 TransDip   0.147 -0.409  0.554   -0.016  0.017 -0.016    0.036 -0.098  0.009

 Mode:                 4                      5                      6
 Frequency:       319.64                 357.10                 401.03
 Force Cnst:      0.0758                 0.1647                 0.3403
 Red. Mass:       1.2598                 2.1915                 3.5913
 IR Active:          YES                    YES                    YES
 IR Intens:       13.427                 84.986                244.386
 Raman Active:       YES                    YES                    YES
               X      Y      Z        X      Y      Z        X      Y      Z
 C         -0.005  0.038  0.050   -0.006  0.036  0.076    0.036  0.057  0.091
 O          0.010 -0.056 -0.045   -0.052  0.035 -0.128   -0.029  0.015 -0.171
 C          0.017 -0.047 -0.057    0.023 -0.095 -0.089   -0.025 -0.090 -0.060
 C          0.007  0.062  0.002    0.006  0.118 -0.056   -0.027 -0.148  0.309
 O         -0.021 -0.004  0.033    0.028 -0.084  0.142    0.020  0.119 -0.150
 H         -0.326  0.488 -0.067    0.035 -0.330  0.285   -0.109 -0.127  0.276
 H          0.247  0.066  0.553   -0.082  0.076 -0.212    0.072  0.103  0.052
 H          0.061 -0.338 -0.259    0.097  0.371  0.329    0.189  0.246  0.228
 H         -0.031 -0.012 -0.091   -0.055 -0.077 -0.306    0.122 -0.276  0.277
 H         -0.045 -0.090 -0.027   -0.090 -0.234  0.194    0.007 -0.053 -0.141
 H         -0.099  0.083  0.076   -0.149  0.096  0.150   -0.197 -0.019  0.265
 H          0.113  0.125  0.042    0.157  0.232 -0.017    0.153  0.010  0.323
 H          0.024  0.009  0.026    0.190 -0.054  0.176    0.094  0.156 -0.239
 TransDip  -0.064  0.080 -0.057   -0.168  0.131 -0.204    0.276 -0.194  0.370

 Mode:                 7                      8                      9
 Frequency:       489.05                 545.89                 687.89
 Force Cnst:      0.3864                 0.7558                 0.3253
 Red. Mass:       2.7423                 4.3046                 1.1669
 IR Active:          YES                    YES                    YES
 IR Intens:        3.761                 86.077                 78.523
 Raman Active:       YES                    YES                    YES
               X      Y      Z        X      Y      Z        X      Y      Z
 C          0.167  0.104  0.048    0.076  0.034  0.011   -0.011 -0.003  0.001
 O          0.127  0.010 -0.034    0.072 -0.042 -0.058    0.002 -0.009  0.030
 C         -0.094 -0.120  0.153   -0.177  0.230 -0.142    0.008  0.065 -0.038
 C         -0.121 -0.035 -0.123   -0.248 -0.084  0.047   -0.005 -0.012  0.030
 O         -0.089  0.041 -0.037    0.219 -0.103  0.134   -0.037 -0.010 -0.055
 H          0.024  0.072  0.142   -0.055  0.070  0.057    0.015  0.022 -0.028
 H          0.260  0.176  0.073    0.179  0.091  0.081   -0.017 -0.005 -0.006
 H          0.209  0.176  0.104    0.115  0.037  0.007   -0.047 -0.027 -0.014
 H         -0.089 -0.206  0.010    0.003  0.288 -0.047   -0.012 -0.211 -0.175
 H         -0.231 -0.241  0.318   -0.231  0.241 -0.338   -0.021  0.026  0.028
 H          0.101 -0.104 -0.244   -0.044 -0.160 -0.047    0.033 -0.041  0.042
 H         -0.404 -0.115 -0.309   -0.446 -0.316  0.088   -0.039 -0.055  0.041
 H          0.090  0.041  0.110    0.020 -0.105 -0.005    0.737 -0.011  0.593
 TransDip   0.053 -0.021  0.025   -0.222  0.110 -0.164    0.202 -0.107  0.169

 Mode:                10                     11                     12
 Frequency:       823.22                 859.39                 883.16
 Force Cnst:      0.4791                 0.5382                 0.9341
 Red. Mass:       1.1999                 1.2368                 2.0327
 IR Active:          YES                    YES                    YES
 IR Intens:        9.641                100.223                 80.101
 Raman Active:       YES                    YES                    YES
               X      Y      Z        X      Y      Z        X      Y      Z
 C          0.042  0.020 -0.007    0.007 -0.001  0.000    0.098  0.052 -0.005
 O         -0.004  0.028  0.022    0.004 -0.007  0.039   -0.020  0.054  0.157
 C         -0.033 -0.058  0.030    0.034  0.038 -0.090    0.017 -0.068 -0.142
 C         -0.043 -0.033 -0.055   -0.020 -0.051  0.019   -0.087 -0.081 -0.040
 O          0.029 -0.004 -0.028    0.020  0.043 -0.034   -0.024  0.006  0.027
 H          0.053  0.010 -0.008    0.056  0.029 -0.041    0.292  0.099 -0.129
 H          0.020 -0.001  0.006   -0.009 -0.005 -0.023   -0.014 -0.016 -0.056
 H          0.058  0.016 -0.011   -0.044 -0.031 -0.015    0.004 -0.028 -0.052
 H         -0.029  0.112  0.190    0.013  0.110 -0.146   -0.029 -0.081 -0.206
 H          0.220  0.206 -0.371   -0.217 -0.288  0.545    0.063 -0.102  0.091
 H         -0.387  0.033  0.197   -0.003 -0.266  0.391   -0.469  0.168 -0.107
 H          0.261  0.284 -0.064   -0.031  0.172 -0.191    0.253 -0.041  0.241
 H         -0.194 -0.207  0.524   -0.390 -0.122  0.229    0.259  0.211 -0.480
 TransDip   0.034 -0.050  0.079   -0.313 -0.056  0.045   -0.083  0.035 -0.272

 Mode:                13                     14                     15
 Frequency:      1018.41                1091.32                1131.93
 Force Cnst:      0.6886                 2.0931                 1.1070
 Red. Mass:       1.1269                 2.9828                 1.4664
 IR Active:          YES                    YES                    YES
 IR Intens:       17.516                121.083                 15.504
 Raman Active:       YES                    YES                    YES
               X      Y      Z        X      Y      Z        X      Y      Z
 C          0.028  0.012 -0.008   -0.227 -0.100  0.057    0.031 -0.019 -0.039
 O         -0.025  0.010  0.009    0.239  0.084 -0.056   -0.020 -0.029 -0.018
 C         -0.005 -0.031 -0.014    0.066  0.043  0.027   -0.088  0.080  0.088
 C          0.006  0.055  0.025   -0.094 -0.077 -0.034    0.042 -0.028 -0.110
 O          0.023 -0.013 -0.046   -0.006  0.003 -0.012   -0.003  0.011 -0.001
 H          0.043  0.009 -0.014   -0.273 -0.094  0.083   -0.224 -0.032  0.096
 H          0.006 -0.002 -0.006   -0.078 -0.002  0.048    0.190  0.100  0.009
 H          0.030  0.004 -0.014   -0.141 -0.035  0.076    0.030  0.088  0.050
 H          0.012  0.114 -0.006   -0.009  0.064 -0.064    0.054  0.022 -0.079
 H         -0.189 -0.178  0.129    0.219  0.029  0.404   -0.089  0.052  0.222
 H          0.023  0.276 -0.391   -0.538  0.292 -0.257   -0.045 -0.231  0.375
 H          0.063 -0.396  0.506    0.173 -0.009  0.166    0.538 -0.174  0.476
 H         -0.288 -0.194  0.350   -0.025 -0.007  0.008    0.095  0.071 -0.123
 TransDip  -0.113 -0.044  0.057   -0.347 -0.061  0.003    0.114  0.054 -0.007

 Mode:                16                     17                     18
 Frequency:      1150.89                1192.84                1245.78
 Force Cnst:      1.2215                 1.0744                 1.3718
 Red. Mass:       1.5652                 1.2817                 1.5003
 IR Active:          YES                    YES                    YES
 IR Intens:       71.680                  2.203                 32.101
 Raman Active:       YES                    YES                    YES
               X      Y      Z        X      Y      Z        X      Y      Z
 C         -0.076  0.005  0.060   -0.057  0.110 -0.054   -0.002  0.045  0.120
 O          0.088  0.061  0.019    0.023 -0.056  0.020    0.025 -0.015 -0.072
 C         -0.021 -0.113 -0.035   -0.005  0.022  0.008   -0.086  0.052  0.028
 C         -0.042  0.080 -0.038    0.010 -0.014 -0.008    0.072 -0.059 -0.020
 O          0.007  0.017 -0.021   -0.002 -0.001  0.002   -0.001 -0.006  0.013
 H          0.211  0.023 -0.089    0.052 -0.260  0.120    0.505  0.183 -0.222
 H         -0.218 -0.102  0.007   -0.437 -0.326  0.296   -0.332 -0.135 -0.135
 H         -0.040 -0.096 -0.038    0.677  0.056 -0.177   -0.266 -0.246 -0.087
 H          0.013  0.007 -0.106   -0.009  0.006  0.023    0.009 -0.058  0.102
 H         -0.017 -0.023 -0.344   -0.054 -0.024  0.054   -0.400 -0.105 -0.051
 H          0.301 -0.402  0.482   -0.033  0.016 -0.016   -0.033  0.079 -0.145
 H         -0.085 -0.337  0.305    0.064  0.024  0.005    0.293  0.173 -0.044
 H         -0.016  0.020 -0.033    0.019  0.007 -0.011    0.023  0.002 -0.006
 TransDip  -0.222 -0.055 -0.146   -0.011  0.046 -0.003    0.117 -0.032  0.135

 Mode:                19                     20                     21
 Frequency:      1262.48                1391.98                1452.22
 Force Cnst:      1.6912                 1.5718                 1.3377
 Red. Mass:       1.8009                 1.3768                 1.0766
 IR Active:          YES                    YES                    YES
 IR Intens:       31.131                 12.383                 10.461
 Raman Active:       YES                    YES                    YES
               X      Y      Z        X      Y      Z        X      Y      Z
 C          0.053  0.058  0.054    0.019  0.002 -0.012   -0.023 -0.012  0.012
 O         -0.064 -0.094 -0.092   -0.028  0.009 -0.017   -0.001 -0.002 -0.005
 C          0.114  0.033  0.083    0.159  0.027  0.060   -0.004 -0.024 -0.051
 C         -0.106  0.036 -0.014   -0.020 -0.015 -0.035   -0.035  0.016 -0.007
 O          0.002  0.007 -0.011   -0.011 -0.008 -0.007   -0.006 -0.021 -0.006
 H          0.332  0.087 -0.111   -0.120 -0.033  0.074    0.110  0.049 -0.088
 H         -0.203 -0.098 -0.108   -0.063 -0.052 -0.005    0.093  0.100 -0.058
 H         -0.107 -0.177 -0.114   -0.092 -0.016 -0.010    0.142  0.007 -0.000
 H         -0.008  0.059 -0.128   -0.125  0.335  0.270   -0.299  0.410  0.621
 H          0.597  0.233  0.330   -0.523 -0.295 -0.285    0.124 -0.026  0.263
 H         -0.154 -0.035  0.150   -0.354  0.022  0.226    0.269 -0.118 -0.076
 H         -0.171 -0.202  0.169   -0.184 -0.194 -0.003    0.160  0.124  0.066
 H         -0.026  0.005 -0.013    0.186  0.053 -0.055    0.249  0.041 -0.011
 TransDip   0.037  0.175  0.003    0.036  0.087  0.061   -0.069 -0.015  0.076

 Mode:                22                     23                     24
 Frequency:      1490.47                1496.67                1513.92
 Force Cnst:      1.5070                 1.3946                 1.4437
 Red. Mass:       1.1514                 1.0567                 1.0691
 IR Active:          YES                    YES                    YES
 IR Intens:        0.565                  7.319                  9.180
 Raman Active:       YES                    YES                    YES
               X      Y      Z        X      Y      Z        X      Y      Z
 C         -0.077 -0.053  0.014    0.051 -0.038  0.001   -0.001 -0.004 -0.058
 O         -0.015 -0.013 -0.006    0.009 -0.006  0.002   -0.002 -0.005 -0.014
 C         -0.011  0.010  0.016    0.004 -0.002 -0.005    0.027  0.010  0.007
 C          0.054 -0.001 -0.005   -0.014  0.003 -0.001   -0.032 -0.001 -0.005
 O         -0.003  0.001 -0.001    0.002 -0.000  0.001    0.004  0.001  0.002
 H          0.374  0.276 -0.401   -0.366  0.556 -0.158    0.304 -0.099 -0.128
 H          0.253  0.215  0.012   -0.425 -0.337 -0.136    0.070 -0.182  0.674
 H          0.467  0.270  0.195    0.054  0.344  0.289   -0.380  0.339  0.295
 H          0.078  0.018 -0.049   -0.040 -0.024  0.024   -0.081 -0.064  0.028
 H         -0.037  0.009 -0.005    0.030  0.003  0.013   -0.014 -0.012 -0.011
 H         -0.255  0.101  0.137    0.055 -0.023 -0.026    0.086 -0.046 -0.051
 H         -0.183 -0.170 -0.065    0.036  0.029  0.021    0.084  0.065  0.044
 H         -0.004  0.002 -0.004   -0.005 -0.003  0.003   -0.014 -0.004  0.001
 TransDip  -0.016  0.010 -0.015   -0.010  0.086 -0.007    0.061  0.037  0.066

 Mode:                25                     26                     27
 Frequency:      1533.41                1563.77                2931.56
 Force Cnst:      2.1001                 1.5625                 5.2467
 Red. Mass:       1.5159                 1.0845                 1.0362
 IR Active:          YES                    YES                    YES
 IR Intens:        8.154                 25.054                 58.123
 Raman Active:       YES                    YES                    YES
               X      Y      Z        X      Y      Z        X      Y      Z
 C          0.037  0.023 -0.011    0.009  0.005 -0.005    0.033  0.003 -0.038
 O          0.025  0.004  0.002    0.001  0.003 -0.009    0.003  0.001 -0.001
 C         -0.128 -0.028 -0.065   -0.031 -0.044  0.023   -0.003  0.002  0.000
 C          0.146  0.025 -0.007   -0.003 -0.020  0.033    0.000  0.000 -0.000
 O         -0.002 -0.009 -0.002   -0.034 -0.011 -0.009    0.000 -0.000  0.000
 H         -0.073 -0.075  0.107    0.012  0.005 -0.004   -0.106 -0.135 -0.220
 H         -0.136 -0.175  0.158   -0.032 -0.050  0.069   -0.407  0.515  0.162
 H         -0.302 -0.005  0.018   -0.053  0.045  0.028    0.073 -0.432  0.519
 H         -0.068  0.138  0.286    0.605  0.698 -0.272    0.001  0.004 -0.001
 H          0.206  0.097  0.276    0.030 -0.011  0.003    0.023 -0.027 -0.006
 H         -0.376  0.191  0.266    0.062 -0.006 -0.067    0.001  0.000  0.000
 H         -0.362 -0.355 -0.137    0.021  0.096 -0.055   -0.002  0.000  0.001
 H          0.086  0.012 -0.003    0.168  0.044  0.002    0.001 -0.000  0.000
 TransDip  -0.033 -0.061  0.059    0.130  0.081 -0.048    0.221  0.063 -0.083

 Mode:                28                     29                     30
 Frequency:      2979.78                3024.79                3079.33
 Force Cnst:      5.7786                 5.8547                 6.1346
 Red. Mass:       1.1046                 1.0861                 1.0980
 IR Active:          YES                    YES                    YES
 IR Intens:       56.553                 20.808                 31.423
 Raman Active:       YES                    YES                    YES
               X      Y      Z        X      Y      Z        X      Y      Z
 C         -0.040  0.080 -0.028    0.000  0.004 -0.003   -0.024 -0.039 -0.078
 O          0.000 -0.000 -0.000   -0.001 -0.001 -0.001   -0.000 -0.000 -0.000
 C         -0.002  0.002  0.001    0.046 -0.068 -0.018    0.000  0.001  0.001
 C          0.000 -0.000 -0.000   -0.000  0.003  0.003   -0.000 -0.000  0.000
 O         -0.000 -0.000  0.000   -0.000 -0.000 -0.000   -0.000  0.000 -0.000
 H         -0.016  0.012 -0.019   -0.005 -0.002 -0.003    0.369  0.464  0.758
 H          0.422 -0.534 -0.197   -0.003 -0.006 -0.002   -0.106  0.130  0.027
 H          0.067 -0.423  0.551    0.004 -0.034  0.041    0.022 -0.131  0.138
 H          0.002  0.005 -0.001    0.007  0.003 -0.005    0.001  0.001 -0.000
 H          0.016 -0.036 -0.012   -0.493  0.832  0.224    0.004 -0.003 -0.002
 H          0.001  0.002  0.001   -0.026 -0.053 -0.030    0.001  0.003  0.001
 H          0.001  0.000  0.001   -0.010  0.008  0.008    0.002 -0.002 -0.002
 H          0.001  0.000  0.000   -0.000  0.001  0.001    0.000  0.000  0.000
 TransDip  -0.095  0.211 -0.068    0.015 -0.129 -0.067   -0.080 -0.077 -0.141

 Mode:                31                     32                     33
 Frequency:      3119.86                3216.75                3594.05
 Force Cnst:      6.0654                 6.8294                 8.1177
 Red. Mass:       1.0576                 1.1202                 1.0666
 IR Active:          YES                    YES                    YES
 IR Intens:        4.241                  0.691                 16.868
 Raman Active:       YES                    YES                    YES
               X      Y      Z        X      Y      Z        X      Y      Z
 C          0.000  0.000  0.000   -0.000  0.000  0.000    0.000  0.000 -0.000
 O         -0.000 -0.000 -0.000    0.000  0.000  0.000   -0.000 -0.000  0.000
 C          0.007 -0.003 -0.000    0.001 -0.003 -0.001   -0.000  0.000 -0.000
 C         -0.065 -0.014  0.010    0.007 -0.080 -0.061    0.001 -0.001 -0.000
 O          0.000 -0.000  0.000   -0.001  0.001  0.001    0.014 -0.059 -0.017
 H         -0.002 -0.002 -0.004    0.000  0.000  0.000   -0.000 -0.000 -0.000
 H         -0.000  0.000  0.000   -0.001 -0.000 -0.000   -0.000  0.000  0.000
 H          0.000 -0.001  0.001   -0.000 -0.000 -0.000    0.000  0.000  0.000
 H         -0.002  0.004 -0.008    0.002 -0.000  0.001   -0.004 -0.010  0.004
 H         -0.027  0.041  0.011   -0.020  0.031  0.006   -0.000 -0.000 -0.001
 H          0.316  0.558  0.302    0.319  0.544  0.297    0.002  0.007 -0.000
 H          0.387 -0.398 -0.427   -0.400  0.401  0.427   -0.004  0.005  0.003
 H         -0.000  0.000  0.002    0.005 -0.007 -0.006   -0.218  0.939  0.259
 TransDip  -0.061 -0.015  0.021    0.012 -0.022 -0.009   -0.034  0.126 -0.015

 STANDARD THERMODYNAMIC QUANTITIES AT   298.15 K  AND     1.00 ATM

   This Molecule has  1 Imaginary Frequencies
   Zero point vibrational energy:       66.073 kcal/mol

   Atom    1 Element C  Has Mass   12.00000
   Atom    2 Element O  Has Mass   15.99491
   Atom    3 Element C  Has Mass   12.00000
   Atom    4 Element C  Has Mass   12.00000
   Atom    5 Element O  Has Mass   15.99491
   Atom    6 Element H  Has Mass    1.00783
   Atom    7 Element H  Has Mass    1.00783
   Atom    8 Element H  Has Mass    1.00783
   Atom    9 Element H  Has Mass    1.00783
   Atom   10 Element H  Has Mass    1.00783
   Atom   11 Element H  Has Mass    1.00783
   Atom   12 Element H  Has Mass    1.00783
   Atom   13 Element H  Has Mass    1.00783
   Molecular Mass:    76.052460 amu
   Principal axes and moments of inertia in amu*Bohr^2:
                             1           2           3
    Eigenvalues --      181.83532   686.85550   785.93401
          X               0.83851     0.31727    -0.44299
          Y               0.11260     0.69455     0.71058
          Z               0.53312    -0.64571     0.54667
   Rotational Symmetry Number is   1
   The Molecule is an Asymmetric Top
   Translational Enthalpy:        0.889 kcal/mol
   Rotational Enthalpy:           0.889 kcal/mol
   Vibrational Enthalpy:         68.049 kcal/mol
   gas constant (RT):             0.592 kcal/mol
   Translational Entropy:        38.902  cal/mol.K
   Rotational Entropy:           26.087  cal/mol.K
   Vibrational Entropy:          10.570  cal/mol.K

   Total Enthalpy:               70.419 kcal/mol
   Total Entropy:                75.559  cal/mol.K
Archival summary:
1\1\nid00505\FREQ\ProcedureUnspecified\BasisUnspecified\238\cgrambow\TueFeb1223:51:472019TueFeb1223:51:472019\0\\#,FREQ,ProcedureUnspecified,BasisUnspecified,\\0,1\O\C,1,1.40547\H,2,1.10032,1,115.113\C,1,1.41919,2,110.951,3,64.9865,0\H,4,1.0968,1,107.022,2,-176.357,0\H,4,1.10587,1,111.6,2,63.4735,0\H,4,1.10616,1,111.598,2,-57.2422,0\C,2,1.42389,1,117.532,3,143.886,0\H,8,1.08915,2,121.436,1,4.80456,0\H,8,1.0892,2,119.396,1,-154.495,0\H,2,1.42925,1,114.918,3,-130.435,0\O,11,1.29768,2,129.085,1,-111.789,0\H,12,0.983353,11,107.667,2,99.62,0\\\@

 Total job time:  1276.63s(wall), 4765.00s(cpu) 
 Tue Feb 12 23:51:47 2019

        *************************************************************
        *                                                           *
        *  Thank you very much for using Q-Chem.  Have a nice day.  *
        *                                                           *
        *************************************************************



Running Job 2 of 3 ts_optfreq0255.in
qchem ts_optfreq0255.in_18665.1 /tmp/qchem18665/ 1
/global/common/cori/software/qchem/5.1/exe/qcprog.exe ts_optfreq0255.in_18665.1 /tmp/qchem18665/
Check license passed

                  Welcome to Q-Chem
     A Quantum Leap Into The Future Of Chemistry


 Q-Chem 5.1, Q-Chem, Inc., Pleasanton, CA (2018)

 Yihan Shao,  Zhengting Gan,  E. Epifanovsky,  A. T. B. Gilbert,  M. Wormit,  
 J. Kussmann,  A. W. Lange,  A. Behn,  Jia Deng,  Xintian Feng,  D. Ghosh,  
 M. Goldey,  P. R. Horn,  L. D. Jacobson,  I. Kaliman,  T. Kus,  A. Landau,  
 Jie Liu,  E. I. Proynov,  R. M. Richard,  R. P. Steele,  E. J. Sundstrom,  
 H. L. Woodcock III,  P. M. Zimmerman,  D. Zuev,  B. Albrecht,  E. Alguire,  
 S. A. Baeppler,  D. Barton,  Z. Benda,  Y. A. Bernard,  E. J. Berquist,  
 K. B. Bravaya,  H. Burton,  D. Casanova,  Chun-Min Chang,  Yunqing Chen,  
 A. Chien,  K. D. Closser,  M. P. Coons,  S. Coriani,  S. Dasgupta,  
 A. L. Dempwolff,  M. Diedenhofen,  Hainam Do,  R. G. Edgar,  Po-Tung Fang,  
 S. Faraji,  S. Fatehi,  Qingguo Feng,  K. D. Fenk,  J. Fosso-Tande,  
 Qinghui Ge,  A. Ghysels,  G. Gidofalvi,  J. Gomes,  J. Gonthier,  A. Gunina,  
 D. Hait,  M. W. D. Hanson-Heine,  P. H. P. Harbach,  A. W. Hauser,  
 J. E. Herr,  E. G. Hohenstein,  Z. C. Holden,  Kerwin Hui,  B. C. Huynh,  
 T.-C. Jagau,  Hyunjun Ji,  B. Kaduk,  K. Khistyaev,  Jaehoon Kim,  
 P. Klunzinger,  K. Koh,  D. Kosenkov,  L. Koulias,  T. Kowalczyk,  
 C. M. Krauter,  A. Kunitsa,  Ka Un Lao,  A. Laurent,  K. V. Lawler,  
 Joonho Lee,  D. Lefrancois,  S. Lehtola,  D. S. Levine,  Yi-Pei Li,  
 You-Sheng Lin,  Fenglai Liu,  E. Livshits,  A. Luenser,  P. Manohar,  
 E. Mansoor,  S. F. Manzer,  Shan-Ping Mao,  Yuezhi Mao,  N. Mardirossian,  
 A. V. Marenich,  T. Markovich,  L. A. Martinez-Martinez,  S. A. Maurer,  
 N. J. Mayhall,  S. C. McKenzie,  J.-M. Mewes,  A. F. Morrison,  
 J. W. Mullinax,  K. Nanda,  T. S. Nguyen-Beck,  R. Olivares-Amaya,  
 J. A. Parkhill,  T. M. Perrine,  F. Plasser,  P. Pokhilko,  S. Prager,  
 A. Prociuk,  E. Ramos,  D. R. Rehn,  F. Rob,  M. Schneider,  N. Sergueev,  
 S. M. Sharada,  S. Sharma,  D. W. Small,  T. Stauch,  T. Stein,  
 Yu-Chuan Su,  A. J. W. Thom,  A. Tkatchenko,  T. Tsuchimochi,  N. M. Tubman,  
 L. Vogt,  M. L. Vidal,  O. Vydrov,  M. A. Watson,  J. Wenzel,  
 M. de Wergifosse,  T. A. Wesolowski,  A. White,  J. Witte,  A. Yamada,  
 Jun Yang,  K. Yao,  S. Yeganeh,  S. R. Yost,  Zhi-Qiang You,  A. Zech,  
 Igor Ying Zhang,  Xing Zhang,  Yan Zhao,  Ying Zhu,  B. R. Brooks,  
 G. K. L. Chan,  C. J. Cramer,  M. S. Gordon,  W. J. Hehre,  A. Klamt,  
 M. W. Schmidt,  C. D. Sherrill,  D. G. Truhlar,  A. Aspuru-Guzik,  R. Baer,  
 A. T. Bell,  N. A. Besley,  Jeng-Da Chai,  R. A. DiStasio Jr.,  A. Dreuw,  
 B. D. Dunietz,  T. R. Furlani,  Chao-Ping Hsu,  Yousung Jung,  Jing Kong,  
 D. S. Lambrecht,  WanZhen Liang,  C. Ochsenfeld,  V. A. Rassolov,  
 L. V. Slipchenko,  J. E. Subotnik,  T. Van Voorhis,  J. M. Herbert,  
 A. I. Krylov,  P. M. W. Gill,  M. Head-Gordon

 Contributors to earlier versions of Q-Chem not listed above: 
 R. D. Adamson,  B. Austin,  J. Baker,  G. J. O. Beran,  K. Brandhorst,  
 S. T. Brown,  E. F. C. Byrd,  A. K. Chakraborty,  C.-L. Cheng,  
 Siu Hung Chien,  D. M. Chipman,  D. L. Crittenden,  H. Dachsel,  
 R. J. Doerksen,  A. D. Dutoi,  L. Fusti-Molnar,  W. A. Goddard III,  
 A. Golubeva-Zadorozhnaya,  S. R. Gwaltney,  G. Hawkins,  A. Heyden,  
 S. Hirata,  G. Kedziora,  F. J. Keil,  C. Kelley,  Jihan Kim,  R. A. King,  
 R. Z. Khaliullin,  P. P. Korambath,  W. Kurlancheek,  A. M. Lee,  M. S. Lee,  
 S. V. Levchenko,  Ching Yeh Lin,  D. Liotard,  R. C. Lochan,  I. Lotan,  
 P. E. Maslen,  N. Nair,  D. P. O'Neill,  D. Neuhauser,  E. Neuscamman,  
 C. M. Oana,  R. Olson,  B. Peters,  R. Peverati,  P. A. Pieniazek,  
 Y. M. Rhee,  J. Ritchie,  M. A. Rohrdanz,  E. Rosta,  N. J. Russ,  
 H. F. Schaefer III,  N. E. Schultz,  N. Shenvi,  A. C. Simmonett,  A. Sodt,  
 D. Stuck,  K. S. Thanthiriwatte,  V. Vanovschi,  Tao Wang,  A. Warshel,  
 C. F. Williams,  Q. Wu,  X. Xu,  W. Zhang

 Please cite Q-Chem as follows:
 Y. Shao et al., Mol. Phys. 113, 184-215 (2015)
 DOI: 10.1080/00268976.2014.952696

 Q-Chem 5.1.0 for Intel X86 EM64T Linux

 Parts of Q-Chem use Armadillo 8.300.2 (Tropical Shenanigans).
 http://arma.sourceforge.net/

 Q-Chem begins on Tue Feb 12 23:51:47 2019  

Host: cori07
0

     Scratch files written to /tmp/qchem18665//
 Jun2518 |scratch|qcdevops|jenkins|workspace|build_RNUM -1
Processing $rem in /global/common/cori/software/qchem/5.1/config/preferences.
 MEM_TOTAL  96000 
The previous job contains 0 fragments, simply inherited here

Checking the input file for inconsistencies... 	...done.

--------------------------------------------------------------
User input:
--------------------------------------------------------------

$molecule
read
$end

$rem
JOBTYPE                   TS
METHOD                    wB97X-D3
BASIS                     def2-TZVP
UNRESTRICTED              TRUE
SCF_GUESS                 READ
GEOM_OPT_HESSIAN          READ
SCF_ALGORITHM             DIIS
MAX_SCF_CYCLES            100
SCF_CONVERGENCE           8
SYM_IGNORE                TRUE
SYMMETRY                  FALSE
GEOM_OPT_MAX_CYCLES       100
GEOM_OPT_TOL_GRADIENT     100
GEOM_OPT_TOL_DISPLACEMENT 400
GEOM_OPT_TOL_ENERGY       33
WAVEFUNCTION_ANALYSIS     FALSE
$end

--------------------------------------------------------------
 Adding empirical dispersion correction 
 ----------------------------------------------------------------
 Doing -D3(0) with
 s6  =   1.00000
 s8  =   1.00000
 rs6 =   1.28100
 rs8 =   1.09400
 -D3 energy without 3body term =     -0.0026450716 hartrees
 ----------------------------------------------------------------
             Standard Nuclear Orientation (Angstroms)
    I     Atom           X                Y                Z
 ----------------------------------------------------------------
    1      C       1.8062364793     0.5999609486     0.5916814464
    2      O       0.5384687270     0.1097611373     0.9998078958
    3      C      -0.0541285838    -0.6589362931    -0.0166915338
    4      C      -1.4765515916    -0.6953640167    -0.0699333854
    5      O      -1.5665679404     0.3514781520    -1.6771172351
    6      H       2.2366602637     1.1306622144     1.4496275036
    7      H       2.4860983232    -0.2223887745     0.2999437419
    8      H       1.7185969552     1.2882708721    -0.2694248698
    9      H      -0.3937535518     0.0668654971    -1.2001658492
   10      H       0.4775111097    -1.5885976225    -0.2692690102
   11      H      -1.9727667490    -1.5515518899    -0.5249936917
   12      H      -2.0857379941    -0.0890555591     0.5990437060
   13      H      -1.7752624472     1.2781933344    -1.4228957184
 ----------------------------------------------------------------
 Nuclear Repulsion Energy =   186.0600930692 hartrees
 There are       21 alpha and       21 beta electrons
 Requested basis set is def2-TZVP
 There are 87 shells and 203 basis functions

 Total QAlloc Memory Limit  96000 MB
 Mega-Array Size       188 MB
 MEM_STATIC part       192 MB
 A cutoff of  1.0D-11 yielded   3553 shell pairs
 There are     19533 function pairs (     24659 Cartesian)
 
 -------------------------------------------------------
 OpenMP Integral Computing Module                       
 Release: version 1.0, May 2013, Q-Chem Inc. Pittsburgh 
 -------------------------------------------------------
 Integral Job Info:
 Integral job number is                      11
 Integral operator is                         1
 short-range coefficients              19572800
 long-range coefficients              100000000
 Omega coefficients                         250
 if combine SR and LR in K                    1
 Integral screening is                        0
 Integral computing path is                   2
 max size of driver memory is            800000
 size of driver memory is                776718
 size of scratch memory is              4473992
 max col of scratch BK array              10000
 max len of scratch array in speh3          662
 max len of scratch index in speh4           32
 max int batch size is                      520
 min int batch size is                       52
 fixed nKL is                                52
 max L of basis functions is                  3
 order of int derivative is                   0
 number of shells is                         87
 number of basis is                         228
 number of cartesian basis is               228
 number of contracted shell pairs          3553
 number of primitive shell pairs           8039
 maxK2 (contraction) of shell pair           36
 max number of K2 of shell pair               1
 max number of CS2 of shell pair            571
 max number of PS2 of shell pair           1008
 mem total for path MDJ                  561332
 -------------------------------------------------------
 Smallest overlap matrix eigenvalue = 2.87E-04

 Scale SEOQF with 1.000000e-01/1.000000e-01/1.000000e-01

 Standard Electronic Orientation quadrupole field applied

 -----------------------------------------------------------------------
  General SCF calculation program by
  Eric Jon Sundstrom, Paul Horn, Yuezhi Mao, Dmitri Zuev, Alec White,
  David Stuck, Shaama M.S., Shane Yost, Joonho Lee, David Small,
  Daniel Levine, Susi Lehtola, Hugh Burton, Evgeny Epifanovsky
 -----------------------------------------------------------------------
 Exchange:     0.1957 Hartree-Fock + 1.0000 wB97X-D3 + LR-HF
 Correlation:  1.0000 wB97X-D3
 Using SG-2 standard quadrature grid
 Dispersion:   Grimme D3
 using 16 threads for integral computing
 -------------------------------------------------------
 OpenMP Integral computing Module                
 Release: version 1.0, May 2013, Q-Chem Inc. Pittsburgh 
 -------------------------------------------------------
 using 16 threads for integral computing
 -------------------------------------------------------
 OpenMP Integral computing Module                
 Release: version 1.0, May 2013, Q-Chem Inc. Pittsburgh 
 -------------------------------------------------------
 -------------------------------------------------------
 OpenMP BLAS3 based DFT computing Module                
 Release: version 1.0, May 2013, Q-Chem Inc. Pittsburgh 
 -------------------------------------------------------
 A unrestricted SCF calculation will be
 performed using DIIS
 SCF converges when DIIS error is below 1.0e-08
 ---------------------------------------
  Cycle       Energy         DIIS error
 ---------------------------------------
    1    -269.4641364255      5.53e-10  
    2    -269.4641364255      3.01e-10  Convergence criterion met
 ---------------------------------------
 SCF time:   CPU 59.58s  wall 5.00s 
<S^2> =          0.000000000
 SCF   energy in the final basis set =     -269.4641364255
 Total energy in the final basis set =     -269.4641364255
 No wavefunction analysis requested
 Calculating analytic gradient of the SCF energy
 Gradient of SCF Energy
            1           2           3           4           5           6
    1   0.0011496  -0.0039268   0.0070806  -0.0084153  -0.0010748   0.0017574
    2   0.0000289   0.0016962   0.0010315  -0.0024531  -0.0138991   0.0021398
    3  -0.0019746   0.0114744   0.0026816   0.0075182  -0.0146149   0.0042761
            7           8           9          10          11          12
    1   0.0041242   0.0007064   0.0050437   0.0020207  -0.0027973  -0.0031816
    2  -0.0036431   0.0033273   0.0042673  -0.0050632  -0.0043635   0.0014446
    3  -0.0023833  -0.0048206  -0.0045742  -0.0032465  -0.0028682   0.0022513
           13
    1  -0.0024868
    2   0.0154864
    3   0.0062806
 Max gradient component =       1.549E-02
 RMS gradient           =       5.761E-03
 Gradient time:  CPU 72.46 s  wall 5.29 s
 Geometry Optimization Parameters
   NAtoms,    NIC,     NZ,  NCons,   NDum,   NFix, NCnnct, MaxDiis
       13      88       0       0       0       0       0       0

 Cartesian Hessian read from HESS file


** GEOMETRY OPTIMIZATION IN DELOCALIZED INTERNAL COORDINATES **
   Searching for a Transition State

   Optimization Cycle:   1

                       Coordinates (Angstroms)
     ATOM                X               Y               Z
      1  C         1.8062364793    0.5999609486    0.5916814464
      2  O         0.5384687270    0.1097611373    0.9998078958
      3  C        -0.0541285838   -0.6589362931   -0.0166915338
      4  C        -1.4765515916   -0.6953640167   -0.0699333854
      5  O        -1.5665679404    0.3514781520   -1.6771172351
      6  H         2.2366602637    1.1306622144    1.4496275036
      7  H         2.4860983232   -0.2223887745    0.2999437419
      8  H         1.7185969552    1.2882708721   -0.2694248698
      9  H        -0.3937535518    0.0668654971   -1.2001658492
     10  H         0.4775111097   -1.5885976225   -0.2692690102
     11  H        -1.9727667490   -1.5515518899   -0.5249936917
     12  H        -2.0857379941   -0.0890555591    0.5990437060
     13  H        -1.7752624472    1.2781933344   -1.4228957184
   Point Group: c1    Number of degrees of freedom:    33


   Energy is   -269.464136426


 Attempting to Generate Delocalized Internal Coordinates

 Transforming Cartesian Hessian to Internal Coordinates
 Hessian Transformation does not Include Derivative of B-matrix

 33 Hessian modes will be used to form the next step
  Hessian Eigenvalues:
    -0.170265    0.006167    0.010954    0.013354    0.016347    0.018975
     0.020905    0.027841    0.039260    0.040816    0.051312    0.057530
     0.062909    0.070909    0.089091    0.090677    0.092674    0.120585
     0.135629    0.138734    0.192968    0.193298    0.260371    0.308394
     0.313170    0.323803    0.332292    0.333321    0.353350    0.354657
     0.370511    0.430481    0.464278

 Transition State Search - Taking P-RFO Step
 Searching for Lamda that Maximizes Along the Lowest mode
 Value Taken    Lamda =   0.00000744
 Searching for Lamda that Minimizes Along All other modes
 Value Taken    Lamda =  -0.00433779
 Step Taken.  Stepsize is  0.256408

                             Maximum     Tolerance    Cnvgd?
         Gradient           0.011751      0.000100      NO
         Displacement       0.092226      0.000400      NO
         Energy change     *********      0.000000      NO


 New Cartesian Coordinates Obtained by Inverse Iteration

 Displacement from previous Coordinates is:  0.251676
 Adding empirical dispersion correction 
 ----------------------------------------------------------------
 Doing -D3(0) with
 s6  =   1.00000
 s8  =   1.00000
 rs6 =   1.28100
 rs8 =   1.09400
 -D3 energy without 3body term =     -0.0025986469 hartrees
 ----------------------------------------------------------------
             Standard Nuclear Orientation (Angstroms)
    I     Atom           X                Y                Z
 ----------------------------------------------------------------
    1      C       1.7879227559     0.6007466486     0.5857046674
    2      O       0.5331444242     0.0965903691     0.9642980819
    3      C      -0.0485915745    -0.6889726107    -0.0329482702
    4      C      -1.4531699198    -0.6859715483    -0.0910939577
    5      O      -1.5521854910     0.3705251334    -1.6248771133
    6      H       2.1910552822     1.1489767503     1.4364623763
    7      H       2.4823052271    -0.2078817594     0.3250469272
    8      H       1.7046255243     1.2726532358    -0.2779923821
    9      H      -0.4214246291     0.0484987961    -1.1975909632
   10      H       0.4771219437    -1.6178018901    -0.2539423329
   11      H      -1.9677588000    -1.5301693776    -0.5276751962
   12      H      -2.0321896390    -0.0739804602     0.5904909089
   13      H      -1.7620521038     1.2860847132    -1.4062697460
 ----------------------------------------------------------------
 Nuclear Repulsion Energy =   188.4058633758 hartrees
 There are       21 alpha and       21 beta electrons
 Applying Cartesian multipole field
    Component          Value
    ---------          -----
     (2,0,0)        1.00000E-11
     (0,2,0)        2.00000E-11
     (0,0,2)       -3.00000E-11
 Nucleus-field energy     =     0.0000000002 hartrees
 Requested basis set is def2-TZVP
 There are 87 shells and 203 basis functions
 A cutoff of  1.0D-11 yielded   3555 shell pairs
 There are     19549 function pairs (     24684 Cartesian)
 Smallest overlap matrix eigenvalue = 2.55E-04

 -----------------------------------------------------------------------
  General SCF calculation program by
  Eric Jon Sundstrom, Paul Horn, Yuezhi Mao, Dmitri Zuev, Alec White,
  David Stuck, Shaama M.S., Shane Yost, Joonho Lee, David Small,
  Daniel Levine, Susi Lehtola, Hugh Burton, Evgeny Epifanovsky
 -----------------------------------------------------------------------
 Exchange:     0.1957 Hartree-Fock + 1.0000 wB97X-D3 + LR-HF
 Correlation:  1.0000 wB97X-D3
 Using SG-2 standard quadrature grid
 Dispersion:   Grimme D3
 using 16 threads for integral computing
 -------------------------------------------------------
 OpenMP Integral computing Module                
 Release: version 1.0, May 2013, Q-Chem Inc. Pittsburgh 
 -------------------------------------------------------
 using 16 threads for integral computing
 -------------------------------------------------------
 OpenMP Integral computing Module                
 Release: version 1.0, May 2013, Q-Chem Inc. Pittsburgh 
 -------------------------------------------------------
 -------------------------------------------------------
 OpenMP BLAS3 based DFT computing Module                
 Release: version 1.0, May 2013, Q-Chem Inc. Pittsburgh 
 -------------------------------------------------------
 A unrestricted SCF calculation will be
 performed using DIIS
 SCF converges when DIIS error is below 1.0e-08
 ---------------------------------------
  Cycle       Energy         DIIS error
 ---------------------------------------
    1    -269.4643000980      2.90e-04  
    2    -269.4661879513      9.32e-05  
    3    -269.4662702693      9.18e-05  
    4    -269.4663904320      1.71e-05  
    5    -269.4663968281      5.28e-06  
    6    -269.4663978884      9.99e-07  
    7    -269.4663979445      4.29e-07  
    8    -269.4663979532      1.51e-07  
    9    -269.4663979541      5.31e-08  
   10    -269.4663979542      2.65e-08  
   11    -269.4663979542      6.81e-09  Convergence criterion met
 ---------------------------------------
 SCF time:   CPU 327.38s  wall 22.00s 
<S^2> =          0.000000000
 SCF   energy in the final basis set =     -269.4663979542
 Total energy in the final basis set =     -269.4663979542
 No wavefunction analysis requested
 Calculating analytic gradient of the SCF energy
 Gradient of SCF Energy
            1           2           3           4           5           6
    1  -0.0002826   0.0002456  -0.0007173   0.0008117  -0.0001053   0.0000781
    2  -0.0001181  -0.0001884   0.0007004   0.0000562  -0.0000181  -0.0001709
    3  -0.0000035   0.0001262   0.0003102   0.0003265  -0.0003823   0.0000286
            7           8           9          10          11          12
    1  -0.0001911  -0.0000420  -0.0003972  -0.0001177   0.0002125  -0.0001184
    2  -0.0000100  -0.0000199   0.0003299   0.0002397   0.0000644   0.0001631
    3  -0.0001230   0.0001096   0.0003940  -0.0005175  -0.0002222  -0.0004431
           13
    1   0.0006236
    2  -0.0010282
    3   0.0003964
 Max gradient component =       1.028E-03
 RMS gradient           =       3.593E-04
 Gradient time:  CPU 74.58 s  wall 5.36 s
 Geometry Optimization Parameters
   NAtoms,    NIC,     NZ,  NCons,   NDum,   NFix, NCnnct, MaxDiis
       13      88       0       0       0       0       0       0

 Cartesian Hessian Update
 Hessian Updated using Powell/Murtagh-Sargent Update
  Mixing factors:     0.950680 Powell
                      0.049320 Murtagh-Sargent


** GEOMETRY OPTIMIZATION IN DELOCALIZED INTERNAL COORDINATES **
   Searching for a Transition State

   Optimization Cycle:   2

                       Coordinates (Angstroms)
     ATOM                X               Y               Z
      1  C         1.7879227559    0.6007466486    0.5857046674
      2  O         0.5331444242    0.0965903691    0.9642980819
      3  C        -0.0485915745   -0.6889726107   -0.0329482702
      4  C        -1.4531699198   -0.6859715483   -0.0910939577
      5  O        -1.5521854910    0.3705251334   -1.6248771133
      6  H         2.1910552822    1.1489767503    1.4364623763
      7  H         2.4823052271   -0.2078817594    0.3250469272
      8  H         1.7046255243    1.2726532358   -0.2779923821
      9  H        -0.4214246291    0.0484987961   -1.1975909632
     10  H         0.4771219437   -1.6178018901   -0.2539423329
     11  H        -1.9677588000   -1.5301693776   -0.5276751962
     12  H        -2.0321896390   -0.0739804602    0.5904909089
     13  H        -1.7620521038    1.2860847132   -1.4062697460
   Point Group: c1    Number of degrees of freedom:    33


   Energy is   -269.466397954

 Hessian Updated using Powell/Murtagh-Sargent Update
  Mixing factors:     0.912730 Powell
                      0.087270 Murtagh-Sargent

 33 Hessian modes will be used to form the next step
  Hessian Eigenvalues:
    -0.170216    0.006130    0.010390    0.013510    0.016102    0.018030
     0.021039    0.027693    0.039094    0.040778    0.051314    0.057309
     0.062914    0.072125    0.089095    0.090759    0.093529    0.121332
     0.135798    0.139113    0.193261    0.193327    0.259870    0.308397
     0.313116    0.323873    0.333004    0.333389    0.353365    0.354798
     0.370522    0.432294    0.466270

 Transition State Search - Taking P-RFO Step
 Searching for Lamda that Maximizes Along the Lowest mode
 Value Taken    Lamda =   0.00000024
 Searching for Lamda that Minimizes Along All other modes
 Value Taken    Lamda =  -0.00012676
 Step Taken.  Stepsize is  0.093835

                             Maximum     Tolerance    Cnvgd?
         Gradient           0.001538      0.000100      NO
         Displacement       0.037923      0.000400      NO
         Energy change     -0.002262      0.000000      NO


 New Cartesian Coordinates Obtained by Inverse Iteration

 Displacement from previous Coordinates is:  0.111928
 Adding empirical dispersion correction 
 ----------------------------------------------------------------
 Doing -D3(0) with
 s6  =   1.00000
 s8  =   1.00000
 rs6 =   1.28100
 rs8 =   1.09400
[...]
 H         -0.000 -0.000  0.001   -0.036  0.320 -0.459    0.049 -0.048  0.401
 H         -0.006 -0.003  0.001   -0.468  0.304 -0.012    0.076 -0.394 -0.342
 H          0.753 -0.429  0.468    0.097 -0.105  0.055    0.047 -0.099  0.006
 H         -0.025 -0.031  0.061   -0.139 -0.180  0.101    0.022 -0.105  0.157
 H         -0.014 -0.015  0.026   -0.128  0.109  0.032    0.051 -0.077 -0.102
 H         -0.012 -0.035  0.042    0.016  0.142 -0.002   -0.055 -0.137 -0.032
 H         -0.069 -0.033  0.047    0.262  0.074 -0.027    0.248  0.083  0.291
 TransDip   0.174 -0.455  0.555   -0.017  0.044 -0.025    0.031 -0.054  0.013

 Mode:                 4                      5                      6
 Frequency:       219.82                 309.12                 399.44
 Force Cnst:      0.0433                 0.1084                 0.2131
 Red. Mass:       1.5213                 1.9252                 2.2670
 IR Active:          YES                    YES                    YES
 IR Intens:        9.417                  8.891                 70.630
 Raman Active:       YES                    YES                    YES
               X      Y      Z        X      Y      Z        X      Y      Z
 C          0.001  0.049  0.050   -0.010 -0.056 -0.106   -0.009  0.014  0.034
 O          0.061 -0.121  0.016    0.029 -0.012  0.143   -0.047  0.016 -0.122
 C          0.006  0.005 -0.051   -0.022  0.107  0.095   -0.022 -0.039 -0.065
 C         -0.000  0.083  0.028   -0.006 -0.094 -0.010   -0.016 -0.118  0.218
 O         -0.051 -0.020 -0.038    0.019  0.052 -0.063    0.091  0.082 -0.026
 H         -0.316  0.482 -0.114    0.097  0.130 -0.287   -0.100 -0.070  0.133
 H          0.253  0.155  0.499   -0.037 -0.099 -0.033    0.001  0.019  0.053
 H          0.005 -0.316 -0.207   -0.146 -0.258 -0.236    0.105  0.105  0.091
 H         -0.037  0.054 -0.026    0.070  0.176  0.283    0.133 -0.048  0.272
 H         -0.058 -0.010 -0.149    0.118  0.253 -0.194    0.074  0.055 -0.234
 H         -0.108  0.115  0.095    0.180 -0.104 -0.204   -0.157 -0.006  0.179
 H          0.114  0.148  0.065   -0.193 -0.228 -0.052    0.148 -0.012  0.255
 H         -0.112 -0.009 -0.147   -0.415 -0.002 -0.287   -0.336  0.117 -0.635
 TransDip  -0.046  0.084 -0.023    0.039 -0.076  0.043    0.138 -0.131  0.190

 Mode:                 7                      8                      9
 Frequency:       459.68                 516.24                 590.60
 Force Cnst:      0.3551                 0.3428                 0.5466
 Red. Mass:       2.8519                 2.1833                 2.6596
 IR Active:          YES                    YES                    YES
 IR Intens:      264.631                233.137                  9.912
 Raman Active:       YES                    YES                    YES
               X      Y      Z        X      Y      Z        X      Y      Z
 C         -0.134 -0.083 -0.047    0.102  0.061  0.027    0.006 -0.002 -0.001
 O         -0.109  0.008  0.031    0.080 -0.002 -0.062    0.024 -0.035  0.002
 C          0.081  0.056 -0.125   -0.105 -0.022  0.033   -0.090  0.228 -0.149
 C          0.092  0.123 -0.054   -0.133  0.011 -0.119   -0.138 -0.057  0.090
 O          0.108 -0.098  0.176    0.073 -0.043  0.133    0.126 -0.091  0.036
 H          0.007 -0.053 -0.130   -0.024  0.031  0.106   -0.018  0.032 -0.013
 H         -0.212 -0.147 -0.079    0.177  0.121  0.056    0.040  0.020  0.017
 H         -0.168 -0.153 -0.099    0.164  0.127  0.067   -0.007 -0.023 -0.016
 H          0.024  0.397 -0.184   -0.043  0.225 -0.047    0.006  0.077 -0.136
 H          0.112  0.061 -0.061   -0.255 -0.137  0.161   -0.092  0.260 -0.326
 H         -0.089  0.129  0.146    0.063 -0.080 -0.189   -0.024 -0.105  0.038
 H          0.326  0.171  0.101   -0.364 -0.113 -0.196   -0.238 -0.223  0.158
 H         -0.451 -0.123 -0.281   -0.504 -0.060 -0.380    0.594 -0.056  0.385
 TransDip  -0.342  0.204 -0.336   -0.328  0.191 -0.309   -0.074  0.054 -0.043

 Mode:                10                     11                     12
 Frequency:       729.94                 807.74                 878.10
 Force Cnst:      0.3542                 0.4998                 1.0642
 Red. Mass:       1.1282                 1.3001                 2.3425
 IR Active:          YES                    YES                    YES
 IR Intens:       42.540                 79.799                 53.002
 Raman Active:       YES                    YES                    YES
               X      Y      Z        X      Y      Z        X      Y      Z
 C          0.019  0.010 -0.001   -0.020 -0.014  0.002    0.119  0.061 -0.001
 O          0.003  0.009 -0.013    0.003 -0.025  0.012   -0.010  0.060  0.169
 C         -0.028 -0.029  0.022    0.044  0.069 -0.085    0.004 -0.066 -0.144
 C         -0.032 -0.019 -0.018    0.012 -0.032  0.064   -0.110 -0.127 -0.070
 O          0.052  0.006 -0.044    0.007  0.046 -0.045   -0.015  0.023  0.007
 H         -0.005 -0.005  0.020   -0.000  0.013 -0.024    0.334  0.120 -0.136
 H          0.023  0.011  0.012   -0.014 -0.003 -0.020    0.014 -0.009 -0.065
 H          0.045  0.026  0.007   -0.066 -0.035 -0.008    0.005 -0.039 -0.056
 H         -0.003  0.175  0.176    0.021  0.063 -0.160   -0.029 -0.006 -0.176
 H          0.079  0.079 -0.161   -0.331 -0.335  0.670    0.057 -0.114  0.201
 H         -0.226 -0.044  0.257    0.200 -0.242  0.233   -0.628  0.081  0.124
 H          0.148  0.237 -0.088   -0.139 -0.006 -0.081    0.358  0.115  0.112
 H         -0.441 -0.274  0.642   -0.264 -0.060  0.129    0.119  0.110 -0.227
 TransDip  -0.108 -0.062  0.168   -0.251 -0.063  0.121   -0.123  0.005 -0.198

 Mode:                13                     14                     15
 Frequency:      1004.95                1108.87                1131.47
 Force Cnst:      0.6715                 1.3296                 0.9543
 Red. Mass:       1.1286                 1.8354                 1.2652
 IR Active:          YES                    YES                    YES
 IR Intens:       14.532                 34.321                 11.784
 Raman Active:       YES                    YES                    YES
               X      Y      Z        X      Y      Z        X      Y      Z
 C          0.021  0.014 -0.003   -0.116 -0.084 -0.006    0.031 -0.002 -0.021
 O         -0.018  0.017  0.012    0.122  0.018 -0.056   -0.022 -0.013 -0.001
 C          0.001 -0.041 -0.021    0.021  0.108  0.078   -0.080  0.018  0.061
 C         -0.001  0.050  0.039   -0.033 -0.087 -0.054    0.025  0.023 -0.095
 O          0.016 -0.018 -0.042   -0.009 -0.001 -0.000    0.003  0.016 -0.013
 H          0.057  0.010 -0.015   -0.390 -0.103  0.130   -0.087 -0.012  0.037
 H         -0.006 -0.005 -0.008    0.100  0.078  0.046    0.094  0.050  0.007
 H          0.027  0.002 -0.011   -0.055  0.060  0.081    0.034  0.052  0.018
 H         -0.006  0.100  0.013    0.017  0.066 -0.012    0.040  0.027 -0.090
 H         -0.153 -0.153  0.077    0.160  0.095  0.478   -0.117  0.021 -0.009
 H         -0.011  0.345 -0.491   -0.470  0.248 -0.174    0.173 -0.370  0.480
 H          0.059 -0.431  0.523    0.329  0.017  0.168    0.392 -0.325  0.509
 H         -0.189 -0.129  0.219    0.040  0.020 -0.036    0.060  0.048 -0.073
 TransDip  -0.119 -0.021  0.018   -0.178 -0.010  0.058    0.085  0.040 -0.057

 Mode:                16                     17                     18
 Frequency:      1171.95                1188.73                1245.12
 Force Cnst:      2.2566                 1.0825                 1.4431
 Red. Mass:       2.7886                 1.3002                 1.5799
 IR Active:          YES                    YES                    YES
 IR Intens:      152.273                  2.574                 47.304
 Raman Active:       YES                    YES                    YES
               X      Y      Z        X      Y      Z        X      Y      Z
 C         -0.193 -0.012  0.117   -0.054  0.111 -0.065    0.004  0.054  0.120
 O          0.206  0.098 -0.010    0.019 -0.059  0.023    0.010 -0.036 -0.092
 C          0.043 -0.131 -0.052   -0.003  0.025  0.011   -0.063  0.075  0.058
 C         -0.109  0.063 -0.016    0.011 -0.014 -0.009    0.061 -0.060 -0.027
 O          0.004  0.020 -0.027   -0.002 -0.001  0.002   -0.001 -0.007  0.013
 H          0.310  0.022 -0.121    0.073 -0.258  0.138    0.508  0.186 -0.201
 H         -0.402 -0.191 -0.003   -0.441 -0.323  0.310   -0.310 -0.146 -0.168
 H         -0.134 -0.215 -0.055    0.668  0.054 -0.156   -0.274 -0.278 -0.096
 H         -0.011  0.032 -0.138   -0.006  0.013  0.032    0.009 -0.053  0.095
 H          0.178 -0.018 -0.214   -0.063 -0.022  0.048   -0.377 -0.082 -0.029
 H          0.091 -0.256  0.326   -0.033  0.016 -0.014   -0.061  0.083 -0.135
 H         -0.236 -0.314  0.217    0.067  0.025  0.002    0.312  0.150 -0.013
 H         -0.039  0.012 -0.017    0.023  0.008 -0.012    0.024  0.001 -0.004
 TransDip  -0.372 -0.061 -0.118    0.005  0.051 -0.000    0.158 -0.004  0.153

 Mode:                19                     20                     21
 Frequency:      1274.16                1387.66                1439.40
 Force Cnst:      1.5495                 1.5660                 1.3200
 Red. Mass:       1.6199                 1.3803                 1.0814
 IR Active:          YES                    YES                    YES
 IR Intens:       34.026                 17.108                  6.434
 Raman Active:       YES                    YES                    YES
               X      Y      Z        X      Y      Z        X      Y      Z
 C          0.064  0.056  0.030    0.026  0.006 -0.009   -0.020 -0.009  0.012
 O         -0.075 -0.100 -0.073   -0.036 -0.001 -0.024    0.002 -0.000 -0.007
 C          0.076  0.024  0.058    0.158  0.020  0.057   -0.015 -0.030 -0.048
 C         -0.084  0.045  0.001   -0.021 -0.004 -0.032   -0.039  0.012 -0.000
 O          0.003  0.006 -0.009   -0.013 -0.009 -0.009   -0.012 -0.022 -0.005
 H          0.248  0.069 -0.067   -0.101 -0.025  0.063    0.102  0.039 -0.074
 H         -0.098 -0.057 -0.096   -0.053 -0.046 -0.027    0.080  0.087 -0.051
 H         -0.039 -0.132 -0.091   -0.080 -0.032 -0.025    0.120  0.007  0.004
 H         -0.001  0.039 -0.137   -0.071  0.396  0.329   -0.143  0.467  0.608
 H          0.684  0.283  0.396   -0.380 -0.245 -0.211    0.133 -0.007  0.237
 H         -0.098 -0.012  0.109   -0.392  0.043  0.282    0.307 -0.137 -0.113
 H         -0.189 -0.179  0.128   -0.278 -0.248 -0.014    0.198  0.176  0.044
 H         -0.038 -0.003  0.001    0.193  0.058 -0.065    0.248  0.049 -0.032
 TransDip   0.048  0.180 -0.009    0.028  0.109  0.070   -0.029 -0.008  0.075

 Mode:                22                     23                     24
 Frequency:      1484.37                1488.36                1512.95
 Force Cnst:      1.4601                 1.4095                 1.4378
 Red. Mass:       1.1247                 1.0800                 1.0661
 IR Active:          YES                    YES                    YES
 IR Intens:        1.274                  6.606                 11.226
 Raman Active:       YES                    YES                    YES
               X      Y      Z        X      Y      Z        X      Y      Z
 C          0.059  0.063 -0.014   -0.071  0.015 -0.007    0.016 -0.006 -0.056
 O          0.010  0.016  0.005   -0.013  0.002 -0.006   -0.000 -0.005 -0.015
 C          0.013 -0.011 -0.010   -0.007  0.007  0.008    0.024  0.005  0.006
 C         -0.046  0.000  0.006    0.027 -0.003 -0.002   -0.030  0.001 -0.003
 O          0.001 -0.001  0.001   -0.001  0.001 -0.001    0.002 -0.001  0.001
 H         -0.262 -0.415  0.450    0.501 -0.438  0.066    0.249 -0.051 -0.104
 H         -0.103 -0.099  0.024    0.480  0.403  0.213   -0.025 -0.201  0.669
 H         -0.444 -0.397 -0.280    0.051 -0.220 -0.169   -0.455  0.361  0.272
 H         -0.032  0.006  0.011    0.028 -0.002 -0.017   -0.050 -0.002  0.029
 H          0.020 -0.013 -0.013   -0.034  0.002 -0.008    0.003 -0.010  0.002
 H          0.183 -0.081 -0.110   -0.101  0.046  0.057    0.064 -0.039 -0.041
 H          0.138  0.133  0.042   -0.072 -0.066 -0.028    0.063  0.050  0.033
 H          0.004  0.000  0.001   -0.002  0.001 -0.002    0.004  0.000 -0.001
 TransDip   0.020 -0.028  0.011    0.006 -0.079  0.021    0.063  0.057  0.066

 Mode:                25                     26                     27
 Frequency:      1543.40                1618.55                3002.47
 Force Cnst:      2.6142                 1.6824                 5.5007
 Red. Mass:       1.8627                 1.0900                 1.0356
 IR Active:          YES                    YES                    YES
 IR Intens:       11.211                 28.275                 65.606
 Raman Active:       YES                    YES                    YES
               X      Y      Z        X      Y      Z        X      Y      Z
 C          0.034  0.023 -0.003    0.005  0.004 -0.002    0.035  0.003 -0.035
 O          0.034  0.009  0.007   -0.002  0.002 -0.008    0.003  0.001 -0.001
 C         -0.182 -0.035 -0.077   -0.027 -0.037  0.034   -0.002  0.001 -0.000
 C          0.183  0.020 -0.003    0.001 -0.026  0.038    0.000  0.000 -0.000
 O         -0.006 -0.011 -0.002   -0.036 -0.003 -0.013    0.000 -0.000  0.000
 H         -0.087 -0.057  0.109    0.011  0.005 -0.005   -0.096 -0.160 -0.228
 H         -0.143 -0.162  0.116   -0.015 -0.020  0.029   -0.424  0.503  0.110
 H         -0.280 -0.033 -0.010   -0.014  0.025  0.007    0.057 -0.400  0.549
 H          0.030  0.170  0.296    0.684  0.587 -0.377    0.001  0.004 -0.002
 H          0.209  0.131  0.300    0.006 -0.008 -0.051    0.019 -0.020 -0.003
 H         -0.328  0.211  0.265    0.040  0.002 -0.065    0.001  0.000  0.000
 H         -0.350 -0.339 -0.152    0.014  0.092 -0.054   -0.002  0.001  0.002
 H          0.095  0.014 -0.004    0.116  0.040  0.012    0.001 -0.000  0.000
 TransDip  -0.006 -0.088  0.061    0.154  0.063 -0.038    0.238  0.067 -0.080

 Mode:                28                     29                     30
 Frequency:      3055.32                3122.24                3144.04
 Force Cnst:      6.0739                 6.2393                 6.3977
 Red. Mass:       1.1043                 1.0863                 1.0985
 IR Active:          YES                    YES                    YES
 IR Intens:       59.120                 20.580                 31.357
 Raman Active:       YES                    YES                    YES
               X      Y      Z        X      Y      Z        X      Y      Z
 C         -0.041  0.077 -0.035    0.000  0.002 -0.003   -0.019 -0.045 -0.077
 O         -0.000  0.000 -0.000   -0.001 -0.001 -0.000   -0.000 -0.000 -0.000
 C         -0.001  0.001  0.001    0.046 -0.069 -0.016   -0.000  0.001  0.001
 C          0.000 -0.000 -0.000    0.002  0.003  0.002   -0.000 -0.000  0.000
 O         -0.000 -0.000  0.000   -0.000  0.000 -0.000   -0.000  0.000 -0.000
 H         -0.014  0.013 -0.017   -0.001  0.002  0.003    0.317  0.518  0.740
 H          0.451 -0.534 -0.144   -0.005 -0.003 -0.001   -0.120  0.137  0.016
 H          0.049 -0.388  0.572    0.002 -0.024  0.032    0.019 -0.129  0.155
 H          0.002  0.004 -0.001    0.007  0.004 -0.005    0.001  0.001 -0.000
 H          0.010 -0.025 -0.009   -0.489  0.839  0.196    0.007 -0.008 -0.003
 H          0.000  0.001  0.000   -0.040 -0.071 -0.039    0.002  0.004  0.002
 H          0.000  0.001  0.001   -0.025  0.024  0.026    0.003 -0.003 -0.004
 H          0.001  0.000  0.000   -0.000  0.001  0.000    0.000  0.000 -0.000
 TransDip  -0.102  0.207 -0.087    0.010 -0.128 -0.068   -0.067 -0.085 -0.143

 Mode:                31                     32                     33
 Frequency:      3174.38                3278.39                3814.64
 Force Cnst:      6.2945                 7.0789                 9.1451
 Red. Mass:       1.0602                 1.1179                 1.0667
 IR Active:          YES                    YES                    YES
 IR Intens:        6.280                  1.063                 20.782
 Raman Active:       YES                    YES                    YES
               X      Y      Z        X      Y      Z        X      Y      Z
 C         -0.000 -0.001 -0.000   -0.000  0.000 -0.000   -0.000  0.000 -0.000
 O          0.000  0.000  0.000    0.000  0.000  0.000    0.000  0.000  0.000
 C         -0.009  0.005  0.000    0.003 -0.004 -0.001   -0.000  0.000 -0.000
 C          0.064 -0.001 -0.023   -0.009 -0.080 -0.059    0.001 -0.001  0.000
 O         -0.001  0.000  0.000   -0.000  0.001  0.001    0.015 -0.059 -0.014
 H          0.003  0.004  0.006    0.000  0.000 -0.000   -0.000 -0.000 -0.000
 H         -0.000  0.000 -0.000   -0.001 -0.000  0.000   -0.000 -0.000  0.000
 H         -0.000  0.001 -0.003   -0.000 -0.000 -0.000    0.000  0.000  0.000
 H          0.001 -0.005  0.009    0.002  0.000 -0.000   -0.007 -0.010  0.004
 H          0.041 -0.066 -0.016   -0.025  0.041  0.008   -0.000 -0.001 -0.000
 H         -0.271 -0.447 -0.239    0.393  0.627  0.340    0.001  0.005 -0.001
 H         -0.425  0.458  0.517   -0.305  0.320  0.359   -0.002  0.003  0.002
 H          0.001 -0.000 -0.003    0.004 -0.004 -0.005   -0.231  0.945  0.220
 TransDip   0.074  0.016 -0.026    0.008 -0.029 -0.013   -0.029  0.143 -0.006

 STANDARD THERMODYNAMIC QUANTITIES AT   298.15 K  AND     1.00 ATM

   This Molecule has  1 Imaginary Frequencies
   Zero point vibrational energy:       66.242 kcal/mol

   Atom    1 Element C  Has Mass   12.00000
   Atom    2 Element O  Has Mass   15.99491
   Atom    3 Element C  Has Mass   12.00000
   Atom    4 Element C  Has Mass   12.00000
   Atom    5 Element O  Has Mass   15.99491
   Atom    6 Element H  Has Mass    1.00783
   Atom    7 Element H  Has Mass    1.00783
   Atom    8 Element H  Has Mass    1.00783
   Atom    9 Element H  Has Mass    1.00783
   Atom   10 Element H  Has Mass    1.00783
   Atom   11 Element H  Has Mass    1.00783
   Atom   12 Element H  Has Mass    1.00783
   Atom   13 Element H  Has Mass    1.00783
   Molecular Mass:    76.052460 amu
   Principal axes and moments of inertia in amu*Bohr^2:
                             1           2           3
    Eigenvalues --      178.08070   667.04157   761.78790
          X               0.84644     0.28111    -0.45224
          Y               0.10730     0.74183     0.66195
          Z               0.52157    -0.60883     0.59774
   Rotational Symmetry Number is   1
   The Molecule is an Asymmetric Top
   Translational Enthalpy:        0.889 kcal/mol
   Rotational Enthalpy:           0.889 kcal/mol
   Vibrational Enthalpy:         68.568 kcal/mol
   gas constant (RT):             0.592 kcal/mol
   Translational Entropy:        38.902  cal/mol.K
   Rotational Entropy:           26.006  cal/mol.K
   Vibrational Entropy:          13.648  cal/mol.K

   Total Enthalpy:               70.938 kcal/mol
   Total Entropy:                78.556  cal/mol.K
Archival summary:
1\1\nid00505\FREQ\ProcedureUnspecified\BasisUnspecified\238\cgrambow\WedFeb1300:17:292019WedFeb1300:17:292019\0\\#,FREQ,ProcedureUnspecified,BasisUnspecified,\\0,1\O\C,1,1.39741\H,2,1.09001,1,115.092\C,1,1.40422,2,112.747,3,65.5697,0\H,4,1.08953,1,107.399,2,-179.415,0\H,4,1.09749,1,111.523,2,-60.2734,0\H,4,1.09754,1,111.386,2,60.7161,0\C,2,1.40665,1,115.825,3,144.426,0\H,8,1.08088,2,119.457,1,-155.916,0\H,8,1.08385,2,120.436,1,0.873768,0\H,2,1.43191,1,112.86,3,-134.177,0\O,11,1.24897,2,130.02,1,-106.815,0\H,12,0.965454,11,112.971,2,100.743,0\\\@

 Total job time:  1348.44s(wall), 4676.90s(cpu) 
 Wed Feb 13 00:17:29 2019

        *************************************************************
        *                                                           *
        *  Thank you very much for using Q-Chem.  Have a nice day.  *
        *                                                           *
        *************************************************************


